<?xml version="1.0"?>
<VTKFile type="UnstructuredGrid"  version="0.1"  >
<UnstructuredGrid>
<Piece  NumberOfPoints="40401" NumberOfCells="80000">
<Points>
<DataArray  type="Float64"  NumberOfComponents="3"  format="ascii">0 0 0  0.005 0 0  0.01 0 0  0.015 0 0  0.02 0 0  0.025 0 0  0.03 0 0  0.035 0 0  0.04 0 0  0.045 0 0  0.05 0 0  0.055 0 0  0.06 0 0  0.065 0 0  0.07000000000000001 0 0  0.075 0 0  0.08 0 0  0.08500000000000001 0 0  0.09 0 0  0.095 0 0  0.1 0 0  0.105 0 0  0.11 0 0  0.115 0 0  0.12 0 0  0.125 0 0  0.13 0 0  0.135 0 0  0.14 0 0  0.145 0 0  0.15 0 0  0.155 0 0  0.16 0 0  0.165 0 0  0.17 0 0  0.175 0 0  0.18 0 0  0.185 0 0  0.19 0 0  0.195 0 0  0.2 0 0  0.205 0 0  0.21 0 0  0.215 0 0  0.22 0 0  0.225 0 0  0.23 0 0  0.235 0 0  0.24 0 0  0.245 0 0  0.25 0 0  0.255 0 0  0.26 0 0  0.265 0 0  0.27 0 0  0.275 0 0  0.28 0 0  0.285 0 0  0.29 0 0  0.295 0 0  0.3 0 0  0.305 0 0  0.31 0 0  0.315 0 0  0.32 0 0  0.325 0 0  0.33 0 0  0.335 0 0  0.34 0 0  0.345 0 0  0.35 0 0  0.355 0 0  0.36 0 0  0.365 0 0  0.37 0 0  0.375 0 0  0.38 0 0  0.385 0 0  0.39 0 0  0.395 0 0  0.4 0 0  0.405 0 0  0.41 0 0  0.415 0 0  0.42 0 0  0.425 0 0  0.43 0 0  0.435 0 0  0.44 0 0  0.445 0 0  0.45 0 0  0.455 0 0  0.46 0 0  0.465 0 0  0.47 0 0  0.475 0 0  0.48 0 0  0.485 0 0  0.49 0 0  0.495 0 0  0.5 0 0  0.505 0 0  0.51 0 0  0.515 0 0  0.52 0 0  0.525 0 0  0.53 0 0  0.535 0 0  0.54 0 0  0.545 0 0  0.55 0 0  0.555 0 0  0.5600000000000001 0 0  0.5649999999999999 0 0  0.57 0 0  0.575 0 0  0.58 0 0  0.585 0 0  0.59 0 0  0.595 0 0  0.6 0 0  0.605 0 0  0.61 0 0  0.615 0 0  0.62 0 0  0.625 0 0  0.63 0 0  0.635 0 0  0.64 0 0  0.645 0 0  0.65 0 0  0.655 0 0  0.66 0 0  0.665 0 0  0.67 0 0  0.675 0 0  0.68 0 0  0.6850000000000001 0 0  0.6899999999999999 0 0  0.695 0 0  0.7 0 0  0.705 0 0  0.71 0 0  0.715 0 0  0.72 0 0  0.725 0 0  0.73 0 0  0.735 0 0  0.74 0 0  0.745 0 0  0.75 0 0  0.755 0 0  0.76 0 0  0.765 0 0  0.77 0 0  0.775 0 0  0.78 0 0  0.785 0 0  0.79 0 0  0.795 0 0  0.8 0 0  0.805 0 0  0.8100000000000001 0 0  0.8149999999999999 0 0  0.82 0 0  0.825 0 0  0.83 0 0  0.835 0 0  0.84 0 0  0.845 0 0  0.85 0 0  0.855 0 0  0.86 0 0  0.865 0 0  0.87 0 0  0.875 0 0  0.88 0 0  0.885 0 0  0.89 0 0  0.895 0 0  0.9 0 0  0.905 0 0  0.91 0 0  0.915 0 0  0.92 0 0  0.925 0 0  0.93 0 0  0.9350000000000001 0 0  0.9399999999999999 0 0  0.945 0 0  0.95 0 0  0.955 0 0  0.96 0 0  0.965 0 0  0.97 0 0  0.975 0 0  0.98 0 0  0.985 0 0  0.99 0 0  0.995 0 0  1 0 0  0 0.005 0  0.005 0.005 0  0.01 0.005 0  0.015 0.005 0  0.02 0.005 0  0.025 0.005 0  0.03 0.005 0  0.035 0.005 0  0.04 0.005 0  0.045 0.005 0  0.05 0.005 0  0.055 0.005 0  0.06 0.005 0  0.065 0.005 0  0.07000000000000001 0.005 0  0.075 0.005 0  0.08 0.005 0  0.08500000000000001 0.005 0  0.09 0.005 0  0.095 0.005 0  0.1 0.005 0  0.105 0.005 0  0.11 0.005 0  0.115 0.005 0  0.12 0.005 0  0.125 0.005 0  0.13 0.005 0  0.135 0.005 0  0.14 0.005 0  0.145 0.005 0  0.15 0.005 0  0.155 0.005 0  0.16 0.005 0  0.165 0.005 0  0.17 0.005 0  0.175 0.005 0  0.18 0.005 0  0.185 0.005 0  0.19 0.005 0  0.195 0.005 0  0.2 0.005 0  0.205 0.005 0  0.21 0.005 0  0.215 0.005 0  0.22 0.005 0  0.225 0.005 0  0.23 0.005 0  0.235 0.005 0  0.24 0.005 0  0.245 0.005 0  0.25 0.005 0  0.255 0.005 0  0.26 0.005 0  0.265 0.005 0  0.27 0.005 0  0.275 0.005 0  0.28 0.005 0  0.285 0.005 0  0.29 0.005 0  0.295 0.005 0  0.3 0.005 0  0.305 0.005 0  0.31 0.005 0  0.315 0.005 0  0.32 0.005 0  0.325 0.005 0  0.33 0.005 0  0.335 0.005 0  0.34 0.005 0  0.345 0.005 0  0.35 0.005 0  0.355 0.005 0  0.36 0.005 0  0.365 0.005 0  0.37 0.005 0  0.375 0.005 0  0.38 0.005 0  0.385 0.005 0  0.39 0.005 0  0.395 0.005 0  0.4 0.005 0  0.405 0.005 0  0.41 0.005 0  0.415 0.005 0  0.42 0.005 0  0.425 0.005 0  0.43 0.005 0  0.435 0.005 0  0.44 0.005 0  0.445 0.005 0  0.45 0.005 0  0.455 0.005 0  0.46 0.005 0  0.465 0.005 0  0.47 0.005 0  0.475 0.005 0  0.48 0.005 0  0.485 0.005 0  0.49 0.005 0  0.495 0.005 0  0.5 0.005 0  0.505 0.005 0  0.51 0.005 0  0.515 0.005 0  0.52 0.005 0  0.525 0.005 0  0.53 0.005 0  0.535 0.005 0  0.54 0.005 0  0.545 0.005 0  0.55 0.005 0  0.555 0.005 0  0.5600000000000001 0.005 0  0.5649999999999999 0.005 0  0.57 0.005 0  0.575 0.005 0  0.58 0.005 0  0.585 0.005 0  0.59 0.005 0  0.595 0.005 0  0.6 0.005 0  0.605 0.005 0  0.61 0.005 0  0.615 0.005 0  0.62 0.005 0  0.625 0.005 0  0.63 0.005 0  0.635 0.005 0  0.64 0.005 0  0.645 0.005 0  0.65 0.005 0  0.655 0.005 0  0.66 0.005 0  0.665 0.005 0  0.67 0.005 0  0.675 0.005 0  0.68 0.005 0  0.6850000000000001 0.005 0  0.6899999999999999 0.005 0  0.695 0.005 0  0.7 0.005 0  0.705 0.005 0  0.71 0.005 0  0.715 0.005 0  0.72 0.005 0  0.725 0.005 0  0.73 0.005 0  0.735 0.005 0  0.74 0.005 0  0.745 0.005 0  0.75 0.005 0  0.755 0.005 0  0.76 0.005 0  0.765 0.005 0  0.77 0.005 0  0.775 0.005 0  0.78 0.005 0  0.785 0.005 0  0.79 0.005 0  0.795 0.005 0  0.8 0.005 0  0.805 0.005 0  0.8100000000000001 0.005 0  0.8149999999999999 0.005 0  0.82 0.005 0  0.825 0.005 0  0.83 0.005 0  0.835 0.005 0  0.84 0.005 0  0.845 0.005 0  0.85 0.005 0  0.855 0.005 0  0.86 0.005 0  0.865 0.005 0  0.87 0.005 0  0.875 0.005 0  0.88 0.005 0  0.885 0.005 0  0.89 0.005 0  0.895 0.005 0  0.9 0.005 0  0.905 0.005 0  0.91 0.005 0  0.915 0.005 0  0.92 0.005 0  0.925 0.005 0  0.93 0.005 0  0.9350000000000001 0.005 0  0.9399999999999999 0.005 0  0.945 0.005 0  0.95 0.005 0  0.955 0.005 0  0.96 0.005 0  0.965 0.005 0  0.97 0.005 0  0.975 0.005 0  0.98 0.005 0  0.985 0.005 0  0.99 0.005 0  0.995 0.005 0  1 0.005 0  0 0.01 0  0.005 0.01 0  0.01 0.01 0  0.015 0.01 0  0.02 0.01 0  0.025 0.01 0  0.03 0.01 0  0.035 0.01 0  0.04 0.01 0  0.045 0.01 0  0.05 0.01 0  0.055 0.01 0  0.06 0.01 0  0.065 0.01 0  0.07000000000000001 0.01 0  0.075 0.01 0  0.08 0.01 0  0.08500000000000001 0.01 0  0.09 0.01 0  0.095 0.01 0  0.1 0.01 0  0.105 0.01 0  0.11 0.01 0  0.115 0.01 0  0.12 0.01 0  0.125 0.01 0  0.13 0.01 0  0.135 0.01 0  0.14 0.01 0  0.145 0.01 0  0.15 0.01 0  0.155 0.01 0  0.16 0.01 0  0.165 0.01 0  0.17 0.01 0  0.175 0.01 0  0.18 0.01 0  0.185 0.01 0  0.19 0.01 0  0.195 0.01 0  0.2 0.01 0  0.205 0.01 0  0.21 0.01 0  0.215 0.01 0  0.22 0.01 0  0.225 0.01 0  0.23 0.01 0  0.235 0.01 0  0.24 0.01 0  0.245 0.01 0  0.25 0.01 0  0.255 0.01 0  0.26 0.01 0  0.265 0.01 0  0.27 0.01 0  0.275 0.01 0  0.28 0.01 0  0.285 0.01 0  0.29 0.01 0  0.295 0.01 0  0.3 0.01 0  0.305 0.01 0  0.31 0.01 0  0.315 0.01 0  0.32 0.01 0  0.325 0.01 0  0.33 0.01 0  0.335 0.01 0  0.34 0.01 0  0.345 0.01 0  0.35 0.01 0  0.355 0.01 0  0.36 0.01 0  0.365 0.01 0  0.37 0.01 0  0.375 0.01 0  0.38 0.01 0  0.385 0.01 0  0.39 0.01 0  0.395 0.01 0  0.4 0.01 0  0.405 0.01 0  0.41 0.01 0  0.415 0.01 0  0.42 0.01 0  0.425 0.01 0  0.43 0.01 0  0.435 0.01 0  0.44 0.01 0  0.445 0.01 0  0.45 0.01 0  0.455 0.01 0  0.46 0.01 0  0.465 0.01 0  0.47 0.01 0  0.475 0.01 0  0.48 0.01 0  0.485 0.01 0  0.49 0.01 0  0.495 0.01 0  0.5 0.01 0  0.505 0.01 0  0.51 0.01 0  0.515 0.01 0  0.52 0.01 0  0.525 0.01 0  0.53 0.01 0  0.535 0.01 0  0.54 0.01 0  0.545 0.01 0  0.55 0.01 0  0.555 0.01 0  0.5600000000000001 0.01 0  0.5649999999999999 0.01 0  0.57 0.01 0  0.575 0.01 0  0.58 0.01 0  0.585 0.01 0  0.59 0.01 0  0.595 0.01 0  0.6 0.01 0  0.605 0.01 0  0.61 0.01 0  0.615 0.01 0  0.62 0.01 0  0.625 0.01 0  0.63 0.01 0  0.635 0.01 0  0.64 0.01 0  0.645 0.01 0  0.65 0.01 0  0.655 0.01 0  0.66 0.01 0  0.665 0.01 0  0.67 0.01 0  0.675 0.01 0  0.68 0.01 0  0.6850000000000001 0.01 0  0.6899999999999999 0.01 0  0.695 0.01 0  0.7 0.01 0  0.705 0.01 0  0.71 0.01 0  0.715 0.01 0  0.72 0.01 0  0.725 0.01 0  0.73 0.01 0  0.735 0.01 0  0.74 0.01 0  0.745 0.01 0  0.75 0.01 0  0.755 0.01 0  0.76 0.01 0  0.765 0.01 0  0.77 0.01 0  0.775 0.01 0  0.78 0.01 0  0.785 0.01 0  0.79 0.01 0  0.795 0.01 0  0.8 0.01 0  0.805 0.01 0  0.8100000000000001 0.01 0  0.8149999999999999 0.01 0  0.82 0.01 0  0.825 0.01 0  0.83 0.01 0  0.835 0.01 0  0.84 0.01 0  0.845 0.01 0  0.85 0.01 0  0.855 0.01 0  0.86 0.01 0  0.865 0.01 0  0.87 0.01 0  0.875 0.01 0  0.88 0.01 0  0.885 0.01 0  0.89 0.01 0  0.895 0.01 0  0.9 0.01 0  0.905 0.01 0  0.91 0.01 0  0.915 0.01 0  0.92 0.01 0  0.925 0.01 0  0.93 0.01 0  0.9350000000000001 0.01 0  0.9399999999999999 0.01 0  0.945 0.01 0  0.95 0.01 0  0.955 0.01 0  0.96 0.01 0  0.965 0.01 0  0.97 0.01 0  0.975 0.01 0  0.98 0.01 0  0.985 0.01 0  0.99 0.01 0  0.995 0.01 0  1 0.01 0  0 0.015 0  0.005 0.015 0  0.01 0.015 0  0.015 0.015 0  0.02 0.015 0  0.025 0.015 0  0.03 0.015 0  0.035 0.015 0  0.04 0.015 0  0.045 0.015 0  0.05 0.015 0  0.055 0.015 0  0.06 0.015 0  0.065 0.015 0  0.07000000000000001 0.015 0  0.075 0.015 0  0.08 0.015 0  0.08500000000000001 0.015 0  0.09 0.015 0  0.095 0.015 0  0.1 0.015 0  0.105 0.015 0  0.11 0.015 0  0.115 0.015 0  0.12 0.015 0  0.125 0.015 0  0.13 0.015 0  0.135 0.015 0  0.14 0.015 0  0.145 0.015 0  0.15 0.015 0  0.155 0.015 0  0.16 0.015 0  0.165 0.015 0  0.17 0.015 0  0.175 0.015 0  0.18 0.015 0  0.185 0.015 0  0.19 0.015 0  0.195 0.015 0  0.2 0.015 0  0.205 0.015 0  0.21 0.015 0  0.215 0.015 0  0.22 0.015 0  0.225 0.015 0  0.23 0.015 0  0.235 0.015 0  0.24 0.015 0  0.245 0.015 0  0.25 0.015 0  0.255 0.015 0  0.26 0.015 0  0.265 0.015 0  0.27 0.015 0  0.275 0.015 0  0.28 0.015 0  0.285 0.015 0  0.29 0.015 0  0.295 0.015 0  0.3 0.015 0  0.305 0.015 0  0.31 0.015 0  0.315 0.015 0  0.32 0.015 0  0.325 0.015 0  0.33 0.015 0  0.335 0.015 0  0.34 0.015 0  0.345 0.015 0  0.35 0.015 0  0.355 0.015 0  0.36 0.015 0  0.365 0.015 0  0.37 0.015 0  0.375 0.015 0  0.38 0.015 0  0.385 0.015 0  0.39 0.015 0  0.395 0.015 0  0.4 0.015 0  0.405 0.015 0  0.41 0.015 0  0.415 0.015 0  0.42 0.015 0  0.425 0.015 0  0.43 0.015 0  0.435 0.015 0  0.44 0.015 0  0.445 0.015 0  0.45 0.015 0  0.455 0.015 0  0.46 0.015 0  0.465 0.015 0  0.47 0.015 0  0.475 0.015 0  0.48 0.015 0  0.485 0.015 0  0.49 0.015 0  0.495 0.015 0  0.5 0.015 0  0.505 0.015 0  0.51 0.015 0  0.515 0.015 0  0.52 0.015 0  0.525 0.015 0  0.53 0.015 0  0.535 0.015 0  0.54 0.015 0  0.545 0.015 0  0.55 0.015 0  0.555 0.015 0  0.5600000000000001 0.015 0  0.
[...]
<PointData  Scalars="f_58"> 
<DataArray  type="Float64"  Name="f_58"  format="ascii">1.3533654179943821e-01  1.3533300962847664e-01  1.3532287831204295e-01  1.3530595751371369e-01  1.3528226645355906e-01  1.3525180073140458e-01  1.3521455543094349e-01  1.3517052506963737e-01  1.3511970302144416e-01  1.3506208165684164e-01  1.3499765232239622e-01  1.3492640533902719e-01  1.3484833000008187e-01  1.3476341456855254e-01  1.3467164627420217e-01  1.3457301131042468e-01  1.3446749483085590e-01  1.3435508094574505e-01  1.3423575271808266e-01  1.3410949215948792e-01  1.3397628022585842e-01  1.3383609681278427e-01  1.3368892075072805e-01  1.3353472979997488e-01  1.3337350064535500e-01  1.3320520889074172e-01  1.3302982905332800e-01  1.3284733455768868e-01  1.3265769772962724e-01  1.3246088978981849e-01  1.3225688084724357e-01  1.3204563989243390e-01  1.3182713479051977e-01  1.3160133227409576e-01  1.3136819793590976e-01  1.3112769622138104e-01  1.3087979042095788e-01  1.3062444266232262e-01  1.3036161390245482e-01  1.3009126391956313e-01  1.2981335130489471e-01  1.2952783345444024e-01  1.2923466656054197e-01  1.2893380560342269e-01  1.2862520434265109e-01  1.2830881530855923e-01  1.2798458979363131e-01  1.2765247784388262e-01  1.2731242825025091e-01  1.2696438854002215e-01  1.2660830496831538e-01  1.2624412250965408e-01  1.2587178484965084e-01  1.2549123437683821e-01  1.2510241217467691e-01  1.2470525801377819e-01  1.2429971034437758e-01  1.2388570628910332e-01  1.2346318163608049e-01  1.2303207083242013e-01  1.2259230697814694e-01  1.2214382182061491e-01  1.2168654574947500e-01  1.2122040779225660e-01  1.2074533561062910e-01  1.2026125549742139e-01  1.1976809237447175e-01  1.1926576979139862e-01  1.1875420992537918e-01  1.1823333358203490e-01  1.1770306019752745e-01  1.1716330784197813e-01  1.1661399322433311e-01  1.1605503169879978e-01  1.1548633727299701e-01  1.1490782261796870e-01  1.1431939908021720e-01  1.1372097669593413e-01  1.1311246420760740e-01  1.1249376908321100e-01  1.1186479753817997e-01  1.1122545456041040e-01  1.1057564393852212e-01  1.0991526829365225e-01  1.0924422911506121e-01  1.0856242679985685e-01  1.0786976069716155e-01  1.0716612915707625e-01  1.0645142958481625e-01  1.0572555850042410e-01  1.0498841160449741e-01  1.0423988385039486e-01  1.0347986952342746e-01  1.0270826232757080e-01  1.0192495548028285e-01  1.0112984181604451e-01  1.0032281389930067e-01  9.9503764147515439e-02  9.8672584965118881e-02  9.7829168889176130e-02  9.6973408747674392e-02  9.6105197831387740e-02  9.5224430080354486e-02  9.4331000286079311e-02  9.3424804310651394e-02  9.2505739324068012e-02  9.1573704061140876e-02  9.0628599099470963e-02  8.9670327160089075e-02  8.8698793432477482e-02  8.7713905925815655e-02  8.6715575848435783e-02  8.5703718017616337e-02  8.4678251302004043e-02  8.3639099099124259e-02  8.2586189850622049e-02  8.1519457598070819e-02  8.0438842582394851e-02  7.9344291890174640e-02  7.8235760150339922e-02  7.7113210285013251e-02  7.5976614318528798e-02  7.4825954248944421e-02  7.3661222986661307e-02  7.2482425365090405e-02  7.1289579228637434e-02  7.0082716603635242e-02  6.8861884958219266e-02  6.7627148557528674e-02  6.6378589921012962e-02  6.5116311389031858e-02  6.3840436806355969e-02  6.2551113330591601e-02  6.1248513373975438e-02  5.9932836687388281e-02  5.8604312595829516e-02  5.7263202394951113e-02  5.5909801918560272e-02  5.4544444287251914e-02  5.3167502848490436e-02  5.1779394318507803e-02  5.0380582136281812e-02  4.8971580039561480e-02  4.7552955872366839e-02  4.6125335632545894e-02  4.4689407766736133e-02  4.3245927718375703e-02  4.1795722732109769e-02  4.0339696914918420e-02  3.8878836550385702e-02  3.7414215657539759e-02  3.5947001779387561e-02  3.4478461978369380e-02  3.3009969006132331e-02  3.1543007602876469e-02  3.0079180866606561e-02  2.8620216614374666e-02  2.7167973635403492e-02  2.5724447709106337e-02  2.4291777228636586e-02  2.2872248231777428e-02  2.1468298594685995e-02  2.0082521089126237e-02  1.8717664939209507e-02  1.7376635438180039e-02  1.6062491098451776e-02  1.4778437708231633e-02  1.3527818555557049e-02  1.2314099956285438e-02  1.1140851088911942e-02  1.0011717000821273e-02  8.9303835159851245e-03  7.9005326565874927e-03  6.9257871112297044e-03  6.0096422709373229e-03  5.1553844554577018e-03  4.3659942284531520e-03  3.6440342357390780e-03  2.9915219068048708e-03  2.4097887758138948e-03  1.8993302672761551e-03  1.4596527235985856e-03  1.0891283627272373e-03  7.8487376426919302e-04  5.4267314927174419e-04  3.5697339796875535e-04  2.2098184998637477e-04  1.2689760500451489e-04  6.6297906016008141e-05  3.0677699197878765e-05  1.2098015470458715e-05  3.8391328822882503e-06  8.9517989608769040e-07  1.3090891237712050e-07  8.5258561309585415e-09  4.0812174473843170e-11  1.1832165616087069e-11  -7.2954669463237600e-13  -1.2876059396152561e-13  5.9684664160195938e-14  -3.0304533554988738e-14  1.3533300962847669e-01  1.3532962629487938e-01  1.3531949973688159e-01  1.3530257357202097e-01  1.3527888452045275e-01  1.3524841932434883e-01  1.3521117494636536e-01  1.3516714566667770e-01  1.3511632486573075e-01  1.3505870491972977e-01  1.3499427717381052e-01  1.3492303194938712e-01  1.3484495854005535e-01  1.3476004520909243e-01  1.3466827918657906e-01  1.3456964666624935e-01  1.3446413280210676e-01  1.3435172170479376e-01  1.3423239643772050e-01  1.3410613901295168e-01  1.3397293038685745e-01  1.3383275045552620e-01  1.3368557804994616e-01  1.3353139093095459e-01  1.3337016578396066e-01  1.3320187821344337e-01  1.3302650273722944e-01  1.3284401278055383e-01  1.3265438066990848e-01  1.3245757762668345e-01  1.3225357376060307e-01  1.3204233806297117e-01  1.3182383839971681e-01  1.3159804150426319e-01  1.3136491297021413e-01  1.3112441724387436e-01  1.3087651761660601e-01  1.3062117621703517e-01  1.3035835400311374e-01  1.3008801075405202e-01  1.2981010506212956e-01  1.2952459432439858e-01  1.2923143473429319e-01  1.2893058127315810e-01  1.2862198770171551e-01  1.2830560655148093e-01  1.2798138911615345e-01  1.2764928544299428e-01  1.2730924432421867e-01  1.2696121328842191e-01  1.2660513859206432e-01  1.2624096521104275e-01  1.2586863683237554e-01  1.2548809584603363e-01  1.2509928333694900e-01  1.2470213907723694e-01  1.2429660151867122e-01  1.2388260778545043e-01  1.2346009366730420e-01  1.2302899361298242e-01  1.2258924072418199e-01  1.2214076674996377e-01  1.2168350208171932e-01  1.2121737574875366e-01  1.2074231541454655e-01  1.2025824737377100e-01  1.1976509655014511e-01  1.1926278649520192e-01  1.1875123938806789e-01  1.1823037603634845e-01  1.1770011587822457e-01  1.1716037698587206e-01  1.1661107607032596e-01  1.1605212848791689e-01  1.1548344824842284e-01  1.1490494802508015e-01  1.1431653916661831e-01  1.1371813171148959e-01  1.1310963440447737e-01  1.1249095471588262e-01  1.1186199886350136e-01  1.1122267183762281e-01  1.1057287742929114e-01  1.0991251826209936e-01  1.0924149582779405e-01  1.0855971052599804e-01  1.0786706170837812e-01  1.0716344772760653e-01  1.0644876599149597e-01  1.0572291302271222e-01  1.0498578452449857e-01  1.0423727545288246e-01  1.0347728009586321e-01  1.0270569216012368e-01  1.0192240486584463e-01  1.0112731105024439e-01  1.0032030328051689e-01  9.9501273976883534e-02  9.8670115546538081e-02  9.7826720529311684e-02  9.6970981755956975e-02  9.6102792520008404e-02  9.5222046764256635e-02  9.4328639282943993e-02  9.3422465940880481e-02  9.2503423910760232e-02  9.1571411930062213e-02  9.0626330579019920e-02  8.9668082581254457e-02  8.8696573128788564e-02  8.7711710233285320e-02  8.6713405105495009e-02  8.5701572565038867e-02  8.4676131482821770e-02  8.3637005258531696e-02  8.2584122335869495e-02  8.1517416758344494e-02  8.0436828768683993e-02  7.9342305455123677e-02  7.8233801448085338e-02  7.7111279671003286e-02  7.5974712149324913e-02  7.4824080882002764e-02  7.3659378780093182e-02  7.2480610677399693e-02  7.1287794418432915e-02  7.0080962029316837e-02  6.8860160977634255e-02  6.7625455527597911e-02  6.6376928197322688e-02  6.5114681325389459e-02  6.3838838754306348e-02  6.2549547638891534e-02  6.1246980388021718e-02  5.9931336748596575e-02  5.8602846040960339e-02  5.7261769555377429e-02  5.5908403119472830e-02  5.4543079846797647e-02  5.3166173076837048e-02  5.1778099516830038e-02  5.0379322595661934e-02  4.8970356039796638e-02  4.7551767680677037e-02  4.6124183502171880e-02  4.4688291935419677e-02  4.3244848406711660e-02  4.1794680141757863e-02  4.0338691226664163e-02  3.8877867922036000e-02  3.7413284221638671e-02  3.5946107640735983e-02  3.4477605211331898e-02  3.3009149651710049e-02  3.1542225665526190e-02  3.0078436310781945e-02  2.8619509360763962e-02  2.7167303556836275e-02  2.5723814626099458e-02  2.4291180904546541e-02  2.2871688367526392e-02  2.1467774823026191e-02  2.0082032968408044e-02  1.8717211946620644e-02  1.7376216962427950e-02  1.6062106431870612e-02  1.4778086038310819e-02  1.3527498955912922e-02  1.2313811377137274e-02  1.1140592347180131e-02  1.0011486770051450e-02  8.9301803164243548e-03  7.9003548459129890e-03  6.9256328766746315e-03  6.0095096238933872e-03  5.1552712300865404e-03  4.3658980864346450e-03  3.6439526800434957e-03  2.9914523083011250e-03  2.4097284175721547e-03  1.8992764124567787e-03  1.4596027135379030e-03  1.0890797516433556e-03  7.8482449486950187e-04  5.4262176774451084e-04  3.5691929490216435e-04  2.2092549266778208e-04  1.2684069407117526e-04  6.6243347802526114e-05  3.0629249220250469e-05  1.2059459472864660e-05  3.8130099354632604e-06  8.8141463632011163e-07  1.2627560897241073e-07  8.0812086332872881e-09  2.1868181553886294e-10  1.4065141541391247e-11  -4.3528346652689330e-12  8.2166551416304834e-13  -1.0044583167209716e-13  9.2440294978153607e-16  1.3532287831204290e-01  1.3531949973688151e-01  1.3530934546953136e-01  1.3529242507154993e-01  1.3526873798973854e-01  1.3523827475399600e-01  1.3520103322539206e-01  1.3515700720283316e-01  1.3510619018527334e-01  1.3504857453113037e-01  1.3498415158750945e-01  1.3491291167677463e-01  1.3483484409321489e-01  1.3474993710100513e-01  1.3465817793117610e-01  1.3455955277849380e-01  1.3445404679807049e-01  1.3434164410173638e-01  1.3422232775416656e-01  1.3409607976877139e-01  1.3396288110334428e-01  1.3382271165547729e-01  1.3367555025774164e-01  1.3352137467263786e-01  1.3336016158731950e-01  1.3319188660809042e-01  1.3301652425468424e-01  1.3283404795432416e-01  1.3264443003557308e-01  1.3244764172197412e-01  1.3224365312549044e-01  1.3203243323974495e-01  1.3181394993307285e-01  1.3158816994138728e-01  1.3135505886086760e-01  1.3111458114048039e-01  1.3086670007433598e-01  1.3061137779389562e-01  1.3034857526003421e-01  1.3007825225497396e-01  1.2980036737409459e-01  1.2951487801763828e-01  1.2922174038231921e-01  1.2892090945285392e-01  1.2861233899342650e-01  1.2829598153910746e-01  1.2797178838724291e-01  1.2763970958883539e-01  1.2729969393993498e-01  1.2695168897306666e-01  1.2659564094871559e-01  1.2623149484689963e-01  1.2585919435885462e-01  1.2547868187886640e-01  1.2508989849627911e-01  1.2469278398771931e-01  1.2428727680956998e-01  1.2387331409073971e-01  1.2345083162576689e-01  1.2301976386831150e-01  1.2258004392508064e-01  1.2213160355024746e-01  1.2167437314041750e-01  1.2120828173021100e-01  1.2073325698852591e-01  1.2024922521555580e-01  1.1975611134064229e-01  1.1925383892104399e-01  1.1874233014171616e-01  1.1822150581619642e-01  1.1769128538869909e-01  1.1715158693753666e-01  1.1660232717998201e-01  1.1604342147870601e-01  1.1547478384992692e-01  1.1489632697342114e-01  1.1430796220455830e-01  1.1370959958852823e-01  1.1310114787694860e-01  1.1248251454705027e-01  1.1185360582365304e-01  1.1121432670416084e-01  1.1056458098682347e-01  1.0990427130252568e-01  1.0923329915039078e-01  1.0855156493750057e-01  1.0785896802305765e-01  1.0715540676734595e-01  1.0644077858585975e-01  1.0571498000901232e-01  1.0497790674785576e-01  1.0422945376628168e-01  1.0346951536020309e-01  1.0269798524426028e-01  1.0191475664662603e-01  1.0111972241254054e-01  1.0031277511723787e-01  9.9493807188990591e-02  9.8662711043043846e-02  9.7819379227269326e-02  9.6963704580437474e-02  9.6095580404065531e-02  9.5214900648876416e-02  9.4321560116981076e-02  9.3415454680975965e-02  9.2496481521242471e-02  9.1564539382829033e-02  9.0619528853398287e-02  8.9661352663838914e-02  8.8689916013254322e-02  8.7705126920175722e-02  8.6706896601979416e-02  8.5695139884640517e-02  8.4669775645112216e-02  8.3630727288789064e-02  8.2577923264697636e-02  8.1511297621251130e-02  8.0430790605613409e-02  7.9336349309940143e-02  7.8227928368005489e-02  7.7105490705970517e-02  7.5969008351323863e-02  7.4818463304307858e-02  7.3653848476446848e-02  7.2475168701114201e-02  7.1282441821410844e-02  7.0075699860982887e-02  6.8854990283773329e-02  6.7620377349090294e-02  6.6371943568770408e-02  6.5109791273624956e-02  6.3834044296774459e-02  6.2544849781895839e-02  6.1242380124825385e-02  5.9926835057366859e-02  5.8598443882545453e-02  5.7257467870903765e-02  5.5904202827750493e-02  5.4538981841519750e-02  5.3162178223559779e-02  5.1774208649718059e-02  5.0375536513983243e-02  4.8966675504151812e-02  4.7548193408944436e-02  4.6120716165152849e-02  4.4684932152165346e-02  4.3241596739512930e-02  4.1791537090781671e-02  4.0335657224216732e-02  3.8874943326436907e-02  3.7410469310688449e-02  3.5943402604763953e-02  3.4475010145809587e-02  3.3006664549422367e-02  3.1539850408293914e-02  3.0076170660735431e-02  2.8617352951174697e-02  2.7165255882521239e-02  2.5721875033423509e-02  2.4289348581063245e-02  2.2869962331311146e-02  2.1466153911777919e-02  2.0080515828418730e-02  1.8715797021740942e-02  1.7374902483191693e-02  1.6060890404981248e-02  1.4776966236739880e-02  1.3526472909915335e-02  1.2312876366547857e-02  1.1139745395425227e-02  1.0010724640380567e-02  8.9294995109432448e-03  7.8997516080717076e-03  6.9251031979288714e-03  6.0090492553010518e-03  5.1548756996111049e-03  4.3655627226798048e-03  3.6436726430146464e-03  2.9912226275440822e-03  2.4095440376432349e-03  1.8991322450988047e-03  1.4594936951619029e-03  1.0890009037812750e-03  7.8477098430068378e-04  5.4258896230525348e-04  3.5690281111563248e-04  2.2092123315069914e-04  1.2684487729810681e-04  6.6252541105380584e-05  3.0640427071191154e-05  1.2070117661790990e-05  3.8213574874361195e-06  8.8661322108958285e-07  1.2858024984355414e-07  8.6081627658493180e-09  1.8269483117242068e-10  -1.3891229281048641e-11  4.9369837182218633e-13  6.3880464485789970e-13  -2.5711944815783919e-13  1.0628045088010196e-13  1.3530595751371363e-01  1.3530257357202105e-01  1.3529242507154995e-01  1.3527551051665387e-01  1.3525182490576426e-01  1.3522136567381529e-01  1.3518412878623928e-01  1.3514010822349812e-01  1.3508929753708585e-01  1.3503168905767976e-01  1.3496727414107912e-01  1.3489604310951711e-01  1.3481798525875108e-01  1.3473308885442511e-01  1.3464134112915643e-01  1.3454272827943453e-01  1.3443723546222250e-01  1.3432484679133280e-01  1.3420554533355447e-01  1.3407931310454138e-01  1.3394613106446385e-01  1.3380597911342298e-01  1.3365883608663220e-01  1.3350467974936775e-01  1.3334348679169378e-01  1.3317523282295968e-01  1.3299989236608012e-01  1.3281743885159628e-01  1.3262784461152635e-01  1.3243108087300726e-01  1.3222711775173346e-01  1.3201592424520089e-01  1.3179746822575716e-01  1.3157171643346988e-01  1.3133863446881533e-01  1.3109818678520041e-01  1.3085033668131968e-01  1.3059504629336460e-01  1.3033227658708652e-01  1.3006198734973093e-01  1.2978413718184970e-01  1.2949868348900639e-01  1.2920558247338723e-01  1.2890478912533168e-01  1.2859625721480011e-01  1.2827993928279230e-01  1.2795578663273890e-01  1.2762374932188253e-01  1.2728377615267020e-01  1.2693581466418186e-01  1.2657981112361666e-01  1.2621571051786631e-01  1.2584345654520224e-01  1.2546299160710700e-01  1.2507425680028569e-01  1.2467719190888917e-01  1.2427173539699019e-01  1.2385782440135268e-01  1.2343539472453752e-01  1.2300438082839477e-01  1.2256471582799039e-01  1.2211633148602442e-01  1.2165915820779995e-01  1.2119312503680502e-01  1.2071815965097593e-01  1.2023418835971576e-01  1.1974113610174703e-01  1.1923892644388086e-01  1.1872748158079731e-01  1.1820672233592870e-01  1.1767656816355718e-01  1.1713693715223245e-01  1.1658774602963609e-01  1.1602891016901593e-01  1.1546034359733638e-01  1.1488195900528714e-01  1.1429366775931669e-01  1.1369537991585757e-01  1.1308700423793221e-01  1.1246844821433605e-01  1.1183961808160955e-01  1.1120041884903148e-01  1.1055075432687642e-01  1.0989052715820033e-01  1.0921963885443939e-01  1.0853798983512489e-01  1.0784547947204084e-01  1.0714200613817725e-01  1.0642746726185337e-01  1.0570175938641829e-01  1.0496477823596317e-01  1.0421641878751221e-01  1.0345657535019567e-01  1.0268514165194330e-01  1.0190201093428031e-01  1.0110707605584698e-01  1.0030022960531171e-01  9.9481364024401817e-02  9.8650371741818260e-02  9.7807145318874106e-02  9.6951577607745462e-02  9.6083561923298200e-02  9.5202992229524705e-02  9.4309763341699757e-02  9.3403771145451037e-02  9.2484912834030097e-02  9.1553087165160682e-02  9.0608194738952472e-02  8.9650138298475762e-02  8.8678823054708325e-02  8.7694157037705792e-02  8.6696051475971952e-02  8.5684421206160086e-02  8.4659185115398397e-02  8.3620266618692998e-02  8.2567594174055431e-02  8.1501101838186957e-02  8.0420729865768023e-02  7.9326425355620109e-02  7.8218142947243857e-02  7.7095845571495417e-02  7.5959505259425589e-02  7.4809104013597583e-02  7.3644634746498377e-02  7.2466102290979842e-02  7.1273524488001755e-02  7.0066933357303463e-02  6.8846376356998654e-02  6.7611917738474941e-02  6.6363640003375218e-02  6.5101645469849007e-02  6.3826057955676904e-02  6.2537024586292900e-02  6.1234717736144639e-02  5.9919337112242128e-02  5.8591111989133110e-02  5.7250303604900070e-02  5.5897207728088767e-02  5.4532157405724868e-02  5.3155525902736221e-02  5.1767729843145108e-02  5.0369232563292905e-02  4.8960547687059396e-02  4.7542242932504447e-02  4.6114944158509225e-02  4.4679339658764992e-02  4.3236184708751124e-02  4.1786306369046775e-02  4.0330608545301433e-02  3.8870077301284688e-02  3.7405786416443654e-02  3.5938903173095560e-02  3.4470694350483243e-02  3.3002532393096626e-02  3.1535901708523890e-02  3.0072405035173215e-02  2.8613769801965901e-02  2.7161854379908579e-02  2.5718654098584606e-02  2.4286306868227820e-02  2.2867098209228880e-02  2.1463465444636235e-02  2.0078000756347844e-02  1.8713452741087294e-02  1.7372726026795689e-02  1.6058878422759708e-02  1.4775114976951864e-02  1.3524778201580892e-02  1.2311333603598748e-02  1.1138349523290507e-02  1.0009470145854455e-02  8.9283804163449079e-03  7.8987614708862022e-03  6.9242351173116300e-03  6.0082958870282836e-03  5.1542292812528706e-03  4.3650151109415145e-03  3.6432153653073785e-03  2.9908469498592326e-03  2.4092410506614073e-03  1.8988929700702799e-03  1.4593092103433044e-03  1.0888624909582917e-03  7.8467029300382455e-04  5.4251818656487713e-04  3.5685486987684247e-04  2.2088994078810426e-04  1.2682508535354572e-04  6.6240227327484869e-05  3.0632704977361238e-05  1.2065142572174277e-05  3.8181184277573990e-06  8.8463017583235392e-07  1.2757493823263436e-07  8.2691711527065402e-09  1.4812988958394034e-10  3.2375686378202707e-12  2.1208276924867801e-12  -5.3803560967541942e-13  -1.1154071021802099e-16  7.6523451429479671e-14  1.3528226645355909e-01  1.3527888452045275e-01  1.3526873798973843e-01  1.3525182490576418e-01  1.3522814319302845e-01  1.3519768953597855e-01  1.3516045905533913e-01  1.3511644618428248e-01  1.3506564436664925e-01  1.3500804594444391e-01  1.3494364227812289e-01  1.3487242368982388e-01  1.3479437947767375e-01  1.3470949790927175e-01  1.3461776621947827e-01  1.3451917060719401e-01  1.3441369623197705e-01  1.3430132721041732e-01  1.3418204661226352e-01  1.3405583645631494e-01  1.3392267770607061e-01  1.3378255026514643e-01  1.3363543297245731e-01  1.3348130359716853e-01  1.3332013883342028e-01  1.33151914