<?xml version="1.0"?>
<VTKFile type="UnstructuredGrid"  version="0.1"  >
<UnstructuredGrid>
<Piece  NumberOfPoints="16065" NumberOfCells="31592">
<Points>
<DataArray  type="Float64"  NumberOfComponents="3"  format="ascii">0 0.3333333333333333 0  0 0 0  1 0 0  1 0.05555555555555555 0  1 0.1333333333333333 0  0.9333333333333333 0.1333333333333333 0  0.9333333333333333 0.2 0  1 0.2 0  1 0.3333333333333333 0  0 0.3283582089552355 0  0 0.3233830845771466 0  0 0.3184079601990478 0  0 0.3134328358209529 0  0 0.3084577114428612 0  0 0.3034825870647574 0  0 0.2985074626866487 0  0 0.2935323383085401 0  0 0.2885572139304335 0  0 0.2835820895523445 0  0 0.2786069651742469 0  0 0.2736318407961489 0  0 0.2686567164180402 0  0 0.2636815920399506 0  0 0.2587064676618518 0  0 0.2537313432837577 0  0 0.2487562189056677 0  0 0.2437810945275751 0  0 0.2388059701494822 0  0 0.233830845771385 0  0 0.228855721393291 0  0 0.2238805970151982 0  0 0.2189054726370999 0  0 0.213930348259007 0  0 0.2089552238809128 0  0 0.2039800995028158 0  0 0.199004975124723 0  0 0.1940298507466273 0  0 0.1890547263685318 0  0 0.1840796019904389 0  0 0.1791044776123418 0  0 0.1741293532342478 0  0 0.1691542288561549 0  0 0.1641791044780463 0  0 0.1592039800999219 0  0 0.1542288557217986 0  0 0.1492537313436784 0  0 0.144278606965554 0  0 0.1393034825874322 0  0 0.1343283582093106 0  0 0.1293532338311862 0  0 0.1243781094530658 0  0 0.1194029850749427 0  0 0.1144278606968183 0  0 0.1094527363186993 0  0 0.1044776119405749 0  0 0.09950248756245161 0  0 0.09452736318433147 0  0 0.08955223880620702 0  0 0.08457711442808519 0  0 0.07960199004996127 0  0 0.07462686567183563 0  0 0.06965174129371338 0  0 0.0646766169155949 0  0 0.05970149253746632 0  0 0.05472636815934701 0  0 0.04975124378122736 0  0 0.04477611940309911 0  0 0.03980099502498063 0  0 0.03482587064685805 0  0 0.02985074626873274 0  0 0.02487562189061426 0  0 0.01990049751248874 0  0 0.01492537313436632 0  0 0.009950248756247781 0  0 0.004975124378119478 0  0.00499999999999053 0 0  0.009999999999981104 0 0  0.01499999999997174 0 0  0.01999999999996237 0 0  0.02499999999995287 0 0  0.02999999999994307 0 0  0.03499999999993262 0 0  0.03999999999992186 0 0  0.04499999999991076 0 0  0.04999999999989966 0 0  0.05499999999988862 0 0  0.05999999999987837 0 0  0.06499999999986901 0 0  0.06999999999986051 0 0  0.07499999999985282 0 0  0.07999999999984518 0 0  0.08499999999983754 0 0  0.0899999999998299 0 0  0.09499999999982227 0 0  0.09999999999981463 0 0  0.104999999999807 0 0  0.1099999999997994 0 0  0.1149999999997918 0 0  0.1199999999997832 0 0  0.1249999999997738 0 0  0.1299999999997609 0 0  0.1349999999997473 0 0  0.1399999999997328 0 0  0.1449999999997182 0 0  0.1499999999997036 0 0  0.1549999999996891 0 0  0.1599999999996745 0 0  0.1649999999996599 0 0  0.1699999999996453 0 0  0.1749999999996308 0 0  0.1799999999996162 0 0  0.1849999999996016 0 0  0.189999999999587 0 0  0.1949999999995725 0 0  0.1999999999995579 0 0  0.2049999999995433 0 0  0.2099999999995288 0 0  0.2149999999995142 0 0  0.2199999999994996 0 0  0.224999999999485 0 0  0.2299999999994704 0 0  0.2349999999994558 0 0  0.2399999999994413 0 0  0.2449999999994267 0 0  0.2499999999994121 0 0  0.2549999999993976 0 0  0.259999999999383 0 0  0.2649999999993684 0 0  0.2699999999993538 0 0  0.2749999999993393 0 0  0.2799999999993247 0 0  0.2849999999993101 0 0  0.2899999999992955 0 0  0.2949999999992809 0 0  0.2999999999992664 0 0  0.3049999999992518 0 0  0.3099999999992372 0 0  0.3149999999992227 0 0  0.3199999999992081 0 0  0.3249999999991935 0 0  0.329999999999179 0 0  0.3349999999991644 0 0  0.3399999999991498 0 0  0.3449999999991352 0 0  0.3499999999991207 0 0  0.3549999999991061 0 0  0.3599999999990915 0 0  0.364999999999077 0 0  0.3699999999990624 0 0  0.3749999999990478 0 0  0.3799999999990332 0 0  0.3849999999990187 0 0  0.3899999999990041 0 0  0.3949999999989895 0 0  0.3999999999989749 0 0  0.4049999999989604 0 0  0.4099999999989458 0 0  0.4149999999989312 0 0  0.4199999999989167 0 0  0.4249999999989021 0 0  0.4299999999988875 0 0  0.4349999999988729 0 0  0.4399999999988584 0 0  0.4449999999988438 0 0  0.4499999999988292 0 0  0.4549999999988146 0 0  0.4599999999988 0 0  0.4649999999987854 0 0  0.4699999999987708 0 0  0.4749999999987564 0 0  0.4799999999987418 0 0  0.4849999999987272 0 0  0.4899999999987126 0 0  0.4949999999987019 0 0  0.4999999999986943 0 0  0.5049999999987005 0 0  0.5099999999987098 0 0  0.514999999998723 0 0  0.5199999999987361 0 0  0.5249999999987494 0 0  0.5299999999987626 0 0  0.5349999999987757 0 0  0.5399999999987888 0 0  0.544999999998802 0 0  0.5499999999988152 0 0  0.5549999999988283 0 0  0.5599999999988415 0 0  0.5649999999988546 0 0  0.5699999999988679 0 0  0.574999999998881 0 0  0.5799999999988942 0 0  0.5849999999989073 0 0  0.5899999999989205 0 0  0.5949999999989336 0 0  0.5999999999989468 0 0  0.6049999999989599 0 0  0.6099999999989731 0 0  0.6149999999989864 0 0  0.6199999999989995 0 0  0.6249999999990127 0 0  0.6299999999990258 0 0  0.634999999999039 0 0  0.6399999999990521 0 0  0.6449999999990653 0 0  0.6499999999990784 0 0  0.6549999999990916 0 0  0.6599999999991049 0 0  0.664999999999118 0 0  0.6699999999991312 0 0  0.6749999999991442 0 0  0.6799999999991574 0 0  0.6849999999991706 0 0  0.6899999999991837 0 0  0.6949999999991969 0 0  0.6999999999992101 0 0  0.7049999999992232 0 0  0.7099999999992365 0 0  0.7149999999992497 0 0  0.7199999999992628 0 0  0.724999999999276 0 0  0.7299999999992892 0 0  0.7349999999993022 0 0  0.7399999999993154 0 0  0.7449999999993285 0 0  0.7499999999993417 0 0  0.754999999999355 0 0  0.7599999999993681 0 0  0.7649999999993813 0 0  0.7699999999993945 0 0  0.7749999999994075 0 0  0.7799999999994207 0 0  0.7849999999994339 0 0  0.789999999999447 0 0  0.7949999999994602 0 0  0.7999999999994734 0 0  0.8049999999994866 0 0  0.8099999999994998 0 0  0.8149999999995129 0 0  0.8199999999995261 0 0  0.8249999999995393 0 0  0.8299999999995523 0 0  0.8349999999995655 0 0  0.8399999999995788 0 0  0.8449999999995919 0 0  0.8499999999996051 0 0  0.8549999999996183 0 0  0.8599999999996314 0 0  0.8649999999996446 0 0  0.8699999999996577 0 0  0.8749999999996709 0 0  0.8799999999996841 0 0  0.8849999999996971 0 0  0.8899999999997104 0 0  0.8949999999997236 0 0  0.8999999999997367 0 0  0.9049999999997499 0 0  0.9099999999997631 0 0  0.9149999999997762 0 0  0.9199999999997894 0 0  0.9249999999998026 0 0  0.9299999999998156 0 0  0.9349999999998289 0 0  0.939999999999842 0 0  0.9449999999998552 0 0  0.9499999999998684 0 0  0.9549999999998815 0 0  0.9599999999998947 0 0  0.9649999999999079 0 0  0.969999999999921 0 0  0.9749999999999343 0 0  0.9799999999999475 0 0  0.9849999999999605 0 0  0.9899999999999737 0 0  0.9949999999999868 0 0  1 0.004629629629621038 0  1 0.009259259259238989 0  1 0.01388888888885587 0  1 0.0185185185184723 0  1 0.02314814814808873 0  1 0.02777777777770583 0  1 0.03240740740734689 0  1 0.0370370370369886 0  1 0.04166666666663033 0  1 0.04629629629627208 0  1 0.05092592592591381 0  1 0.06041666666665547 0  1 0.0652777777777554 0  1 0.07013888888885125 0  1 0.07499999999994983 0  1 0.07986111111104839 0  1 0.08472222222214695 0  1 0.08958333333323469 0  1 0.09444444444433597 0  1 0.09930555555545895 0  1 0.1041666666665819 0  1 0.1090277777777076 0  1 0.1138888888888306 0  1 0.118749999999959 0  1 0.1236111111110847 0  1 0.1284722222222077 0  0.995238095238089 0.1333333333333333 0  0.9904761904761719 0.1333333333333333 0  0.9857142857142888 0.1333333333333333 0  0.9809523809523778 0.1333333333333333 0  0.9761904761904948 0.1333333333333333 0  0.9714285714286179 0.1333333333333333 0  0.9666666666667534 0.1333333333333333 0  0.9619047619048208 0.1333333333333333 0  0.9571428571429254 0.1333333333333333 0  0.9523809523809988 0.1333333333333333 0  0.9476190476190879 0.1333333333333333 0  0.9428571428571615 0.1333333333333333 0  0.9380952380952443 0.1333333333333333 0  0.9333333333333333 0.1380952380952311 0  0.9333333333333333 0.1428571428571127 0  0.9333333333333333 0.1476190476190166 0  0.9333333333333333 0.1523809523809082 0  0.9333333333333333 0.1571428571427805 0  0.9333333333333333 0.1619047619046937 0  0.9333333333333333 0.1666666666665745 0  0.9333333333333333 0.1714285714284932 0  0.9333333333333333 0.1761904761904134 0  0.9333333333333333 0.1809523809523275 0  0.9333333333333333 0.185714285714247 0  0.9333333333333333 0.1904761904761665 0  0.9333333333333333 0.1952380952380805 0  0.9380952380952443 0.2 0  0.9428571428571615 0.2 0  0.9476190476190446 0.2 0  0.9523809523809555 0.2 0  0.9571428571428385 0.2 0  0.9619047619047154 0.2 0  0.96666666666658 0.2 0  0.9714285714285126 0.2 0  0.976190476190408 0.2 0  0.9809523809523345 0.2 0  0.9857142857142455 0.2 0  0.9904761904761719 0.2 0  0.995238095238089 0.2 0  1 0.2049382716049228 0  1 0.2098765432098617 0  1 0.2148148148147805 0  1 0.2197530864197075 0  1 0.2246913580246271 0  1 0.2296296296295531 0  1 0.2345679012344705 0  1 0.2395061728393821 0  1 0.244444444444336 0  1 0.2493827160492443 0  1 0.2543209876541471 0  1 0.259259259259105 0  1 0.2641975308640344 0  1 0.2691358024689626 0  1 0.2740740740739138 0  1 0.2790123456788717 0  1 0.2839506172838188 0  1 0.288888888888766 0  1 0.2938271604937239 0  1 0.298765432098671 0  1 0.3037037037036181 0  1 0.3086419753085761 0  1 0.313580246913534 0  1 0.3185185185184727 0  1 0.3234567901234283 0  1 0.3283950617283834 0  0.9949999999999791 0.3333333333333333 0  0.9899999999999584 0.3333333333333333 0  0.9849999999999375 0.3333333333333333 0  0.9799999999999167 0.3333333333333333 0  0.9749999999998958 0.3333333333333333 0  0.9699999999998751 0.3333333333333333 0  0.9649999999998542 0.3333333333333333 0  0.9599999999998334 0.3333333333333333 0  0.9549999999998126 0.3333333333333333 0  0.9499999999997918 0.3333333333333333 0  0.9449999999997709 0.3333333333333333 0  0.9399999999997501 0.3333333333333333 0  0.9349999999997293 0.3333333333333333 0  0.9299999999997085 0.3
[...]
<PointData  Vectors="Displacement"> 
<DataArray  type="Float64"  Name="Displacement"  NumberOfComponents="3" format="ascii">0.0000000000000000e+00 0.0000000000000000e+00 0.0000000000000000e+00  0.0000000000000000e+00 0.0000000000000000e+00 0.0000000000000000e+00  2.3558267948884056e-03 -2.5107411904944960e-03 0.0000000000000000e+00  3.6363925699107826e-03 -2.4267138520221400e-03 0.0000000000000000e+00  5.1083560597335112e-03 -1.4576292274786186e-03 0.0000000000000000e+00  4.7539422383618204e-03 -4.8498358596002668e-04 0.0000000000000000e+00  5.4692839621946045e-03 -1.6986260615127949e-04 0.0000000000000000e+00  5.7532593529621666e-03 -1.1546519392814291e-03 0.0000000000000000e+00  6.5501682054215429e-03 -8.9327846006657431e-04 0.0000000000000000e+00  0.0000000000000000e+00 0.0000000000000000e+00 0.0000000000000000e+00  0.0000000000000000e+00 0.0000000000000000e+00 0.0000000000000000e+00  0.0000000000000000e+00 0.0000000000000000e+00 0.0000000000000000e+00  0.0000000000000000e+00 0.0000000000000000e+00 0.0000000000000000e+00  0.0000000000000000e+00 0.0000000000000000e+00 0.0000000000000000e+00  0.0000000000000000e+00 0.0000000000000000e+00 0.0000000000000000e+00  0.0000000000000000e+00 0.0000000000000000e+00 0.0000000000000000e+00  0.0000000000000000e+00 0.0000000000000000e+00 0.0000000000000000e+00  0.0000000000000000e+00 0.0000000000000000e+00 0.0000000000000000e+00  0.0000000000000000e+00 0.0000000000000000e+00 0.0000000000000000e+00  0.0000000000000000e+00 0.0000000000000000e+00 0.0000000000000000e+00  0.0000000000000000e+00 0.0000000000000000e+00 0.0000000000000000e+00  0.0000000000000000e+00 0.0000000000000000e+00 0.0000000000000000e+00  0.0000000000000000e+00 0.0000000000000000e+00 0.0000000000000000e+00  0.0000000000000000e+00 0.0000000000000000e+00 0.0000000000000000e+00  0.0000000000000000e+00 0.0000000000000000e+00 0.0000000000000000e+00  0.0000000000000000e+00 0.0000000000000000e+00 0.0000000000000000e+00  0.0000000000000000e+00 0.0000000000000000e+00 0.0000000000000000e+00  0.0000000000000000e+00 0.0000000000000000e+00 0.0000000000000000e+00  0.0000000000000000e+00 0.0000000000000000e+00 0.0000000000000000e+00  0.0000000000000000e+00 0.0000000000000000e+00 0.0000000000000000e+00  0.0000000000000000e+00 0.0000000000000000e+00 0.0000000000000000e+00  0.0000000000000000e+00 0.0000000000000000e+00 0.0000000000000000e+00  0.0000000000000000e+00 0.0000000000000000e+00 0.0000000000000000e+00  0.0000000000000000e+00 0.0000000000000000e+00 0.0000000000000000e+00  0.0000000000000000e+00 0.0000000000000000e+00 0.0000000000000000e+00  0.0000000000000000e+00 0.0000000000000000e+00 0.0000000000000000e+00  0.0000000000000000e+00 0.0000000000000000e+00 0.0000000000000000e+00  0.0000000000000000e+00 0.0000000000000000e+00 0.0000000000000000e+00  0.0000000000000000e+00 0.0000000000000000e+00 0.0000000000000000e+00  0.0000000000000000e+00 0.0000000000000000e+00 0.0000000000000000e+00  0.0000000000000000e+00 0.0000000000000000e+00 0.0000000000000000e+00  0.0000000000000000e+00 0.0000000000000000e+00 0.0000000000000000e+00  0.0000000000000000e+00 0.0000000000000000e+00 0.0000000000000000e+00  0.0000000000000000e+00 0.0000000000000000e+00 0.0000000000000000e+00  0.0000000000000000e+00 0.0000000000000000e+00 0.0000000000000000e+00  0.0000000000000000e+00 0.0000000000000000e+00 0.0000000000000000e+00  0.0000000000000000e+00 0.0000000000000000e+00 0.0000000000000000e+00  0.0000000000000000e+00 0.0000000000000000e+00 0.0000000000000000e+00  0.0000000000000000e+00 0.0000000000000000e+00 0.0000000000000000e+00  0.0000000000000000e+00 0.0000000000000000e+00 0.0000000000000000e+00  0.0000000000000000e+00 0.0000000000000000e+00 0.0000000000000000e+00  0.0000000000000000e+00 0.0000000000000000e+00 0.0000000000000000e+00  0.0000000000000000e+00 0.0000000000000000e+00 0.0000000000000000e+00  0.0000000000000000e+00 0.0000000000000000e+00 0.0000000000000000e+00  0.0000000000000000e+00 0.0000000000000000e+00 0.0000000000000000e+00  0.0000000000000000e+00 0.0000000000000000e+00 0.0000000000000000e+00  0.0000000000000000e+00 0.0000000000000000e+00 0.0000000000000000e+00  0.0000000000000000e+00 0.0000000000000000e+00 0.0000000000000000e+00  0.0000000000000000e+00 0.0000000000000000e+00 0.0000000000000000e+00  0.0000000000000000e+00 0.0000000000000000e+00 0.0000000000000000e+00  0.0000000000000000e+00 0.0000000000000000e+00 0.0000000000000000e+00  0.0000000000000000e+00 0.0000000000000000e+00 0.0000000000000000e+00  0.0000000000000000e+00 0.0000000000000000e+00 0.0000000000000000e+00  0.0000000000000000e+00 0.0000000000000000e+00 0.0000000000000000e+00  0.0000000000000000e+00 0.0000000000000000e+00 0.0000000000000000e+00  0.0000000000000000e+00 0.0000000000000000e+00 0.0000000000000000e+00  0.0000000000000000e+00 0.0000000000000000e+00 0.0000000000000000e+00  0.0000000000000000e+00 0.0000000000000000e+00 0.0000000000000000e+00  0.0000000000000000e+00 0.0000000000000000e+00 0.0000000000000000e+00  0.0000000000000000e+00 0.0000000000000000e+00 0.0000000000000000e+00  0.0000000000000000e+00 0.0000000000000000e+00 0.0000000000000000e+00  0.0000000000000000e+00 0.0000000000000000e+00 0.0000000000000000e+00  0.0000000000000000e+00 0.0000000000000000e+00 0.0000000000000000e+00  0.0000000000000000e+00 0.0000000000000000e+00 0.0000000000000000e+00  0.0000000000000000e+00 0.0000000000000000e+00 0.0000000000000000e+00  -2.7114869401874892e-05 -2.6943744156704705e-05 0.0000000000000000e+00  -4.5675673056252386e-05 -5.2330328368462923e-05 0.0000000000000000e+00  -5.9298087523018632e-05 -8.2515576225888326e-05 0.0000000000000000e+00  -6.8848832075587036e-05 -1.1626228955074259e-04 0.0000000000000000e+00  -7.4806936664314593e-05 -1.5285551404671009e-04 0.0000000000000000e+00  -7.7645855567826010e-05 -1.9173220819792411e-04 0.0000000000000000e+00  -7.7717420786917437e-05 -2.3212319481541246e-04 0.0000000000000000e+00  -7.5574255486994914e-05 -2.7399585698658897e-04 0.0000000000000000e+00  -7.1372647833396080e-05 -3.1680483808194668e-04 0.0000000000000000e+00  -6.5541432695717230e-05 -3.6029435943883638e-04 0.0000000000000000e+00  -5.8374819499602449e-05 -4.0484694886345948e-04 0.0000000000000000e+00  -5.0016968340303230e-05 -4.5002889962709151e-04 0.0000000000000000e+00  -4.0609537555955089e-05 -4.9625126856007377e-04 0.0000000000000000e+00  -3.0168226397436334e-05 -5.4345523205410269e-04 0.0000000000000000e+00  -1.8860869582555132e-05 -5.9164864330280183e-04 0.0000000000000000e+00  -6.6826341221697158e-06 -6.4102456550433012e-04 0.0000000000000000e+00  6.3034640342425399e-06 -6.9128670132664980e-04 0.0000000000000000e+00  2.0100310271224217e-05 -7.4257523838096252e-04 0.0000000000000000e+00  3.4672532708189392e-05 -7.9494688285866155e-04 0.0000000000000000e+00  5.0080827040525164e-05 -8.4836226689596439e-04 0.0000000000000000e+00  6.6243101024512468e-05 -9.0269912829123882e-04 0.0000000000000000e+00  8.3152583532076561e-05 -9.5780775324158464e-04 0.0000000000000000e+00  1.0066089842739009e-04 -1.0140449876870389e-03 0.0000000000000000e+00  1.1868182176893923e-04 -1.0711321873891485e-03 0.0000000000000000e+00  1.3746251474110901e-04 -1.1292306296581561e-03 0.0000000000000000e+00  1.5677190135610479e-04 -1.1883021647952788e-03 0.0000000000000000e+00  1.7651484308838078e-04 -1.2482591808990330e-03 0.0000000000000000e+00  1.9670476493040089e-04 -1.3092427658125431e-03 0.0000000000000000e+00  2.1731289893176501e-04 -1.3712942068102307e-03 0.0000000000000000e+00  2.3830147698601279e-04 -1.4344942540311005e-03 0.0000000000000000e+00  2.5970284390863346e-04 -1.4989063989499978e-03 0.0000000000000000e+00  2.8156452670278999e-04 -1.5645200389726075e-03 0.0000000000000000e+00  3.0390505532898118e-04 -1.6312449914302552e-03 0.0000000000000000e+00  3.2681663229980904e-04 -1.6991193973031891e-03 0.0000000000000000e+00  3.5042749712480882e-04 -1.7680128011063486e-03 0.0000000000000000e+00  3.7485064574073029e-04 -1.8376926078068306e-03 0.0000000000000000e+00  4.0016763666699798e-04 -1.9077841099263517e-03 0.0000000000000000e+00  4.2631635305894600e-04 -1.9778749159847734e-03 0.0000000000000000e+00  4.5328095997848339e-04 -2.0477903731143765e-03 0.0000000000000000e+00  4.8101643033518694e-04 -2.1171841145548151e-03 0.0000000000000000e+00  5.0941839011587025e-04 -2.1858120484599007e-03 0.0000000000000000e+00  5.3841412096569371e-04 -2.2534756088649788e-03 0.0000000000000000e+00  5.6799722820766012e-04 -2.3200217892685236e-03 0.0000000000000000e+00  5.9817363718361047e-04 -2.3852237851003377e-03 0.0000000000000000e+00  6.2890843025963322e-04 -2.4487967627827988e-03 0.0000000000000000e+00  6.6023014245067434e-04 -2.5106543599639794e-03 0.0000000000000000e+00  6.9222142298876318e-04 -2.5704561691139746e-03 0.0000000000000000e+00  7.2480990733906822e-04 -2.6278641029851622e-03 0.0000000000000000e+00  7.5788158559154321e-04 -2.6825269714609887e-03 0.0000000000000000e+00  7.9129341017764130e-04 -2.7342464018101763e-03 0.0000000000000000e+00  8.2484483604155731e-04 -2.7827201749071628e-03 0.0000000000000000e+00  8.5818897371757517e-04 -2.8278931100475324e-03 0.0000000000000000e+00  8.9120344294843599e-04 -2.8700323668416263e-03 0.0000000000000000e+00  9.2366666057186182e-04 -2.9093603862446827e-03 0.0000000000000000e+00  9.5550175063388045e-04 -2.9461968607650177e-03 0.0000000000000000e+00  9.8658187395061049e-04 -2.9808079189556362e-03 0.0000000000000000e+00  1.0168984129512964e-03 -3.0134281127449287e-03 0.0000000000000000e+00  1.0464394875175447e-03 -3.0446080905038170e-03 0.0000000000000000e+00  1.0752584527082081e-03 -3.0748923489491956e-03 0.0000000000000000e+00  1.1034785200065608e-03 -3.1041833057510512e-03 0.0000000000000000e+00  1.1311048326411515e-03 -3.1328719897602223e-03 0.0000000000000000e+00  1.1581103403014220e-03 -3.1612649460332647e-03 0.0000000000000000e+00  1.1846317103329186e-03 -3.1894808108327019e-03 0.0000000000000000e+00  1.2106302990417561e-03 -3.2175258890700651e-03 0.0000000000000000e+00  1.2361197291097217e-03 -3.2456912989343579e-03 0.0000000000000000e+00  1.2611803138863498e-03 -3.2741727472848326e-03 0.0000000000000000e+00  1.2858433175570976e-03 -3.3031246594030970e-03 0.0000000000000000e+00  1.3101283930848568e-03 -3.3326832271546288e-03 0.0000000000000000e+00  1.3340825719020753e-03 -3.3630023417209045e-03 0.0000000000000000e+00  1.3577561857336131e-03 -3.3941580351137370e-03 0.0000000000000000e+00  1.3811044424377463e-03 -3.4261873519640077e-03 0.0000000000000000e+00  1.4041546542592855e-03 -3.4593383054738421e-03 0.0000000000000000e+00  1.4269538657343801e-03 -3.4937341664134924e-03 0.0000000000000000e+00  1.4495117104447507e-03 -3.5294739086659125e-03 0.0000000000000000e+00  1.4718565986073533e-03 -3.5666679119500545e-03 0.0000000000000000e+00  1.4940652140378041e-03 -3.6054383189321887e-03 0.0000000000000000e+00  1.5162293379422356e-03 -3.6456640405167088e-03 0.0000000000000000e+00  1.5382748342723318e-03 -3.6874064411184636e-03 0.0000000000000000e+00  1.5602435998451167e-03 -3.7308120743621115e-03 0.0000000000000000e+00  1.5821348710204977e-03 -3.7759193620408912e-03 0.0000000000000000e+00  1.6039475290447664e-03 -3.8227714821552142e-03 0.0000000000000000e+00  1.6256769746951334e-03 -3.8713798339163703e-03 0.0000000000000000e+00  1.6472803482012195e-03 -3.9217534140999020e-03 0.0000000000000000e+00  1.6687327059759780e-03 -3.9742107963602925e-03 0.0000000000000000e+00  1.6902053593298692e-03 -4.0289555765258295e-03 0.0000000000000000e+00  1.7118735445025414e-03 -4.0858174754864777e-03 0.0000000000000000e+00  1.7339447606135893e-03 -4.1449279676685092e-03 0.0000000000000000e+00  1.7567895771013228e-03 -4.2061824059274827e-03 0.0000000000000000e+00  1.7809347317568444e-03 -4.2690450233452849e-03 0.0000000000000000e+00  1.8068925215262385e-03 -4.3324634939055414e-03 0.0000000000000000e+00  1.8351631312640533e-03 -4.3953311419949069e-03 0.0000000000000000e+00  1.8666305438427180e-03 -4.4558255721291930e-03 0.0000000000000000e+00  1.9020193955412578e-03 -4.5109400526119189e-03 0.0000000000000000e+00  1.9410710657720895e-03 -4.5593085098735190e-03 0.0000000000000000e+00  1.9813329992092723e-03 -4.5959241707320278e-03 0.0000000000000000e+00  2.0243097781207980e-03 -4.6189255159367337e-03 0.0000000000000000e+00  2.0662216372790048e-03 -4.6293134700175886e-03 0.0000000000000000e+00  2.1050150466335694e-03 -4.6279601398120712e-03 0.0000000000000000e+00  2.1412516671010309e-03 -4.6186779196230694e-03 0.0000000000000000e+00  2.1757391793417223e-03 -4.6018009783281967e-03 0.0000000000000000e+00  2.2093379182537686e-03 -4.5794285065726501e-03 0.0000000000000000e+00  2.2423669114647374e-03 -4.5484753546343034e-03 0.0000000000000000e+00  2.2782424133499070e-03 -4.5064802317582951e-03 0.0000000000000000e+00  2.3138215624187715e-03 -4.4516550449493529e-03 0.0000000000000000e+00  2.3481623119828115e-03 -4.3834592101012915e-03 0.0000000000000000e+00  2.3809616459479614e-03 -4.3036088533067712e-03 0.0000000000000000e+00  2.4115208062788262e-03 -4.2136508714434376e-03 0.0000000000000000e+00  2.4400099954631238e-03 -4.1151764792428268e-03 0.0000000000000000e+00  2.4658327542907517e-03 -4.0098753906497742e-03 0.0000000000000000e+00  2.4893733604136447e-03 -3.8996019336602137e-03 0.0000000000000000e+00  2.5106295970503617e-03 -3.7871907841009354e-03 0.0000000000000000e+00  2.5295764636739473e-03 -3.6728231642822948e-03 0.0000000000000000e+00  2.5465940487975477e-03 -3.5579700548644838e-03 0.0000000000000000e+00  2.5619986695380784e-03 -3.4435916600227502e-03 0.0000000000000000e+00  2.5758225010123060e-03 -3.3306822709429167e-03 0.0000000000000000e+00  2.5883661770417549e-03 -3.2203680610912140e-03 0.0000000000000000e+00  2.5996914730553951e-03 -3.1130394378465851e-03 0.0000000000000000e+00  2.6097279681053438e-03 -3.0098527902491334e-03 0.0000000000000000e+00  2.6189878897781671e-03 -2.9112693284220393e-03 0.0000000000000000e+00  2.6266408970349363e-03 -2.8180405312496215e-03 0.0000000000000000e+00  2.6337976456391704e-03 -2.7303797788462126e-03 0.0000000000000000e+00  2.6389509532322407e-03 -2.6488419610110588e-03 0.0000000000000000e+00  2.6431444992777459e-03 -2.5743583924675122e-03 0.0000000000000000e+00  2.6467072301897504e-03 -2.5071210488907623e-03 0.0000000000000000e+00  2.6500163137732641e-03 -2.4467185609633331e-03 0.0000000000000000e+00  2.6533739911381968e-03 -2.3939249613915102e-03 0.0000000000000000e+00  2.6572615340803140e-03 -2.3474670279985481e-03 0.0000000000000000e+00  2.6615398579488180e-03 -2.3068814428180103e-03 0.0000000000000000e+00  2.6665312442552790e-03 -2.2721108756878269e-03 0.0000000000000000e+00  2.6722717690271609e-03 -2.2418757986623189e-03 0.0000000000000000e+00  2.6787995509840587e-03 -2.2154423855736145e-03 0.0000000000000000e+00  2.6858985390083197e-03 -2.1919620790191714e-03 0.0000000000000000e+00  2.6935392592832407e-03 -2.1708813935994351e-03 0.0000000000000000e+00  2.7016144780618494e-03 -2.1516548168746064e-03 0.0000000000000000e+00  2.7100774983399387e-03 -2.1335677160373395e-03 0.0000000000000000e+00  2.7188376126289033e-03 -2.1162064419194618e-03 0.0000000000000000e+00  2.7276449431403731e-03 -2.0993444306300511e-03 0.0000000000000000e+00  2.7365157731042583e-03 -2.0827497701480851e-03 0.0000000000000000e+00  2.7452038835887984e-03 -2.0665777762179471e-03 0.0000000000000000e+00  2.7536858668946863e-03 -2.0510416870729801e-03 0.0000000000000000e+00  2.7619219608182011e-03 -2.0363197702898631e-03 0.0000000000000000e+00  2.7700349606928684e-03 -2.0226274961058564e-03 0.0000000000000000e+00  2.7779590024340209e-03 -2.0099620003948900e-03 0.0000000000000000e+00  2.7854994803978199e-03 -1.9981798649038852e-03 0.0000000000000000e+00  2.7928202429306566e-03 -1.9878732962947611e-03 0.0000000000000000e+00  2.7996370896134480e-03 -1.9798381367694897e-03 0.0000000000000000e+00  2.8060755893382868e-03 -1.9742058529611832e-03 0.0000000000000000e+00  2.8122069408694269e-03 -1.9711728706251074e-03 0.0000000000000000e+00  2.8179170941326796e-03 -1.9710655148379871e-03 0.0000000000000000e+00  2.8232597184609026e-03 -1.9743566555313003e-03 0.0000000000000000e+00  2.8283007447146473e-03 -1.9812604316209311e-03 0.0000000000000000e+00  2.8330190201466634e-03 -1.9920261206381640e-03 0.0000000000000000e+00  2.8374521007436316e-03 -2.0068019021239896e-03 0.0000000000000000e+00  2.8415391646117480e-03 -2.0257679240322075e-03 0.0000000000000000e+00  2.8453801353614115e-03 -2.0495999281155124e-03 0.0000000000000000e+00  2.8491902735435057e-03 -2.0780792679648582e-03 0.0000000000000000e+00  2.8529109285093499e-03 -2.1112174058387401e-03 0.0000000000000000e+00  2.8567120258801344e-03 -2.1489129421586265e-03 0.0000000000000000e+00  2.8603970512244125e-03 -2.1908973615028010e-03 0.0000000000000000e+00  2.8640955955526763e-03 -2.2373740386740066e-03 0.0000000000000000e+00  2.8678633933400476e-03 -2.2878833007737381e-03 0.0000000000000000e+00  2.8716735515039679e-03 -2.3424830651913031e-03 0.0000000000000000e+00  2.8757215942299863e-03 -2.4007366697980687e-03 0.0000000000000000e+00  2.8800780681893681e-03 -2.4625570897686922e-03 0.0000000000000000e+00  2.8848103636199564e-03 -2.5265545749144852e-03 0.0000000000000000e+00  2.8900574080570739e-03 -2.5920594945870240e-03 0.0000000000000000e+00  2.8959412209351530e-03 -2.6589299346345789e-03 0.0000000000000000e+00  2.9031602699462838e-03 -2.7247387293152085e-03 0.0000000000000000e+00  2.9151760621266404e-03 -2.7828237654969399e-03 0.0000000000000000e+00  3.0296539114779359e-03 -2.7587372588905833e-03 0.0000000000000000e+00  3.0555184848316840e-03 -2.6725893498217683e-03 0.0000000000000000e+00  3.0652989057441122e-03 -2.5775531471898296e-03 0.0000000000000000e+00  3.0713700116619226e-03 -2.4833748314084807e-03 0.0000000000000000e+00  3.0811536099964744e-03 -2.3872930288294054e-03 0.0000000000000000e+00  3.0907037521917522e-03 -2.2934008017179608e-03 0.0000000000000000e+00  3.0983324499101834e-03 -2.2022461768663308e-03 0.0000000000000000e+00  3.1046029786247964e-03 -2.1124990578606684e-03 0.0000000000000000e+00  3.1066636208477751e-03 -2.0231706838673147e-03 0.0000000000000000e+00  3.1041740456527111e-03 -1.9395395404240203e-03 0.0000000000000000e+00  3.0981689951858470e-03 -1.8626375696843434e-03 0.0000000000000000e+00  3.0877100919593668e-03 -1.7915280969207023e-03 0.0000000000000000e+00  3.0713967966026767e-03 -1.7262953067996305e-03 0.0000000000000000e+00  3.0493309908137273e-03 -1.6687555036044477e-03 0.0000000000000000e+00  3.0220804694252226e-03 -1.6204280069090492e-03 0.0000000000000000e+00  2.9899759614365508e-03 -1.5817695927524563e-03 0.0000000000000000e+00  2.9534235127881879e-03 -1.5531016590952188e-03 0.0000000000000000e+00  2.9125052481679616e-03 -1.5346787540602711e-03 0.0000000000000000e+00  2.8667362344997416e-03 -1.5265365360620875e-03 0.0000000000000000e+00  2.8155058684471118e-03 -1.5307114920813973e-03 0.0000000000000000e+00  2.7593460420402877e-03 -1.5484145448138476e-03 0.0000000000000000e+00  2.6988579364965949e-03 -1.5814823951482160e-03 0.0000000000000000e+00  2.6355410912121090e-03 -1.6318594937508987e-03 0.0000000000000000e+00  2.5724050944527736e-03 -1.7003899088748149e-03 0.0000000000000000e+00  2.5115613721161342e-03 -1.7877311813480508e-03 0.0000000000000000e+00  2.4581077323071019e-03 -1.8912953013406817e-03 0.0000000000000000e+00  2.4108539991291632e-03 -2.0114173684239768e-03 0.0000000000000000e+00  2.3751171372049574e-03 -2.1408599897333879e-03 0.0000000000000000e+00  2.3553018074192558e-03 -2.2793119707718371e-03 0.0000000000000000e+00  2.3553333205574923e-03 -2.3962629900559809e-03 0.0000000000000000e+00  2.4596361386520931e-03 -2.5069393031506484e-03 0.0000000000000000e+00  2.5501797248505126e-03 -2.5047628393333964e-03 0.0000000000000000e+00  2.6341395554663059e-03 -2.5048206191328492e-03 0.0000000000000000e+00  2.7177100641811993e-03 -2.5049225538414572e-03 0.0000000000000000e+00  2.8015336706189360e-03 -2.5051034006354032e-03 0.0000000000000000e+00  2.8859709976907658e-03 -2.5064775820916358e-03 0.0000000000000000e+00  3.0159985825366389e-03 -2.5084915370541098e-03 0