<?xml version="1.0"?>
<VTKFile type="UnstructuredGrid"  version="0.1"  >
<UnstructuredGrid>
<Piece  NumberOfPoints="16065" NumberOfCells="31592">
<Points>
<DataArray  type="Float64"  NumberOfComponents="3"  format="ascii">0 0.3333333333333333 0  0 0 0  1 0 0  1 0.05555555555555555 0  1 0.1333333333333333 0  0.9333333333333333 0.1333333333333333 0  0.9333333333333333 0.2 0  1 0.2 0  1 0.3333333333333333 0  0 0.3283582089552355 0  0 0.3233830845771466 0  0 0.3184079601990478 0  0 0.3134328358209529 0  0 0.3084577114428612 0  0 0.3034825870647574 0  0 0.2985074626866487 0  0 0.2935323383085401 0  0 0.2885572139304335 0  0 0.2835820895523445 0  0 0.2786069651742469 0  0 0.2736318407961489 0  0 0.2686567164180402 0  0 0.2636815920399506 0  0 0.2587064676618518 0  0 0.2537313432837577 0  0 0.2487562189056677 0  0 0.2437810945275751 0  0 0.2388059701494822 0  0 0.233830845771385 0  0 0.228855721393291 0  0 0.2238805970151982 0  0 0.2189054726370999 0  0 0.213930348259007 0  0 0.2089552238809128 0  0 0.2039800995028158 0  0 0.199004975124723 0  0 0.1940298507466273 0  0 0.1890547263685318 0  0 0.1840796019904389 0  0 0.1791044776123418 0  0 0.1741293532342478 0  0 0.1691542288561549 0  0 0.1641791044780463 0  0 0.1592039800999219 0  0 0.1542288557217986 0  0 0.1492537313436784 0  0 0.144278606965554 0  0 0.1393034825874322 0  0 0.1343283582093106 0  0 0.1293532338311862 0  0 0.1243781094530658 0  0 0.1194029850749427 0  0 0.1144278606968183 0  0 0.1094527363186993 0  0 0.1044776119405749 0  0 0.09950248756245161 0  0 0.09452736318433147 0  0 0.08955223880620702 0  0 0.08457711442808519 0  0 0.07960199004996127 0  0 0.07462686567183563 0  0 0.06965174129371338 0  0 0.0646766169155949 0  0 0.05970149253746632 0  0 0.05472636815934701 0  0 0.04975124378122736 0  0 0.04477611940309911 0  0 0.03980099502498063 0  0 0.03482587064685805 0  0 0.02985074626873274 0  0 0.02487562189061426 0  0 0.01990049751248874 0  0 0.01492537313436632 0  0 0.009950248756247781 0  0 0.004975124378119478 0  0.00499999999999053 0 0  0.009999999999981104 0 0  0.01499999999997174 0 0  0.01999999999996237 0 0  0.02499999999995287 0 0  0.02999999999994307 0 0  0.03499999999993262 0 0  0.03999999999992186 0 0  0.04499999999991076 0 0  0.04999999999989966 0 0  0.05499999999988862 0 0  0.05999999999987837 0 0  0.06499999999986901 0 0  0.06999999999986051 0 0  0.07499999999985282 0 0  0.07999999999984518 0 0  0.08499999999983754 0 0  0.0899999999998299 0 0  0.09499999999982227 0 0  0.09999999999981463 0 0  0.104999999999807 0 0  0.1099999999997994 0 0  0.1149999999997918 0 0  0.1199999999997832 0 0  0.1249999999997738 0 0  0.1299999999997609 0 0  0.1349999999997473 0 0  0.1399999999997328 0 0  0.1449999999997182 0 0  0.1499999999997036 0 0  0.1549999999996891 0 0  0.1599999999996745 0 0  0.1649999999996599 0 0  0.1699999999996453 0 0  0.1749999999996308 0 0  0.1799999999996162 0 0  0.1849999999996016 0 0  0.189999999999587 0 0  0.1949999999995725 0 0  0.1999999999995579 0 0  0.2049999999995433 0 0  0.2099999999995288 0 0  0.2149999999995142 0 0  0.2199999999994996 0 0  0.224999999999485 0 0  0.2299999999994704 0 0  0.2349999999994558 0 0  0.2399999999994413 0 0  0.2449999999994267 0 0  0.2499999999994121 0 0  0.2549999999993976 0 0  0.259999999999383 0 0  0.2649999999993684 0 0  0.2699999999993538 0 0  0.2749999999993393 0 0  0.2799999999993247 0 0  0.2849999999993101 0 0  0.2899999999992955 0 0  0.2949999999992809 0 0  0.2999999999992664 0 0  0.3049999999992518 0 0  0.3099999999992372 0 0  0.3149999999992227 0 0  0.3199999999992081 0 0  0.3249999999991935 0 0  0.329999999999179 0 0  0.3349999999991644 0 0  0.3399999999991498 0 0  0.3449999999991352 0 0  0.3499999999991207 0 0  0.3549999999991061 0 0  0.3599999999990915 0 0  0.364999999999077 0 0  0.3699999999990624 0 0  0.3749999999990478 0 0  0.3799999999990332 0 0  0.3849999999990187 0 0  0.3899999999990041 0 0  0.3949999999989895 0 0  0.3999999999989749 0 0  0.4049999999989604 0 0  0.4099999999989458 0 0  0.4149999999989312 0 0  0.4199999999989167 0 0  0.4249999999989021 0 0  0.4299999999988875 0 0  0.4349999999988729 0 0  0.4399999999988584 0 0  0.4449999999988438 0 0  0.4499999999988292 0 0  0.4549999999988146 0 0  0.4599999999988 0 0  0.4649999999987854 0 0  0.4699999999987708 0 0  0.4749999999987564 0 0  0.4799999999987418 0 0  0.4849999999987272 0 0  0.4899999999987126 0 0  0.4949999999987019 0 0  0.4999999999986943 0 0  0.5049999999987005 0 0  0.5099999999987098 0 0  0.514999999998723 0 0  0.5199999999987361 0 0  0.5249999999987494 0 0  0.5299999999987626 0 0  0.5349999999987757 0 0  0.5399999999987888 0 0  0.544999999998802 0 0  0.5499999999988152 0 0  0.5549999999988283 0 0  0.5599999999988415 0 0  0.5649999999988546 0 0  0.5699999999988679 0 0  0.574999999998881 0 0  0.5799999999988942 0 0  0.5849999999989073 0 0  0.5899999999989205 0 0  0.5949999999989336 0 0  0.5999999999989468 0 0  0.6049999999989599 0 0  0.6099999999989731 0 0  0.6149999999989864 0 0  0.6199999999989995 0 0  0.6249999999990127 0 0  0.6299999999990258 0 0  0.634999999999039 0 0  0.6399999999990521 0 0  0.6449999999990653 0 0  0.6499999999990784 0 0  0.6549999999990916 0 0  0.6599999999991049 0 0  0.664999999999118 0 0  0.6699999999991312 0 0  0.6749999999991442 0 0  0.6799999999991574 0 0  0.6849999999991706 0 0  0.6899999999991837 0 0  0.6949999999991969 0 0  0.6999999999992101 0 0  0.7049999999992232 0 0  0.7099999999992365 0 0  0.7149999999992497 0 0  0.7199999999992628 0 0  0.724999999999276 0 0  0.7299999999992892 0 0  0.7349999999993022 0 0  0.7399999999993154 0 0  0.7449999999993285 0 0  0.7499999999993417 0 0  0.754999999999355 0 0  0.7599999999993681 0 0  0.7649999999993813 0 0  0.7699999999993945 0 0  0.7749999999994075 0 0  0.7799999999994207 0 0  0.7849999999994339 0 0  0.789999999999447 0 0  0.7949999999994602 0 0  0.7999999999994734 0 0  0.8049999999994866 0 0  0.8099999999994998 0 0  0.8149999999995129 0 0  0.8199999999995261 0 0  0.8249999999995393 0 0  0.8299999999995523 0 0  0.8349999999995655 0 0  0.8399999999995788 0 0  0.8449999999995919 0 0  0.8499999999996051 0 0  0.8549999999996183 0 0  0.8599999999996314 0 0  0.8649999999996446 0 0  0.8699999999996577 0 0  0.8749999999996709 0 0  0.8799999999996841 0 0  0.8849999999996971 0 0  0.8899999999997104 0 0  0.8949999999997236 0 0  0.8999999999997367 0 0  0.9049999999997499 0 0  0.9099999999997631 0 0  0.9149999999997762 0 0  0.9199999999997894 0 0  0.9249999999998026 0 0  0.9299999999998156 0 0  0.9349999999998289 0 0  0.939999999999842 0 0  0.9449999999998552 0 0  0.9499999999998684 0 0  0.9549999999998815 0 0  0.9599999999998947 0 0  0.9649999999999079 0 0  0.969999999999921 0 0  0.9749999999999343 0 0  0.9799999999999475 0 0  0.9849999999999605 0 0  0.9899999999999737 0 0  0.9949999999999868 0 0  1 0.004629629629621038 0  1 0.009259259259238989 0  1 0.01388888888885587 0  1 0.0185185185184723 0  1 0.02314814814808873 0  1 0.02777777777770583 0  1 0.03240740740734689 0  1 0.0370370370369886 0  1 0.04166666666663033 0  1 0.04629629629627208 0  1 0.05092592592591381 0  1 0.06041666666665547 0  1 0.0652777777777554 0  1 0.07013888888885125 0  1 0.07499999999994983 0  1 0.07986111111104839 0  1 0.08472222222214695 0  1 0.08958333333323469 0  1 0.09444444444433597 0  1 0.09930555555545895 0  1 0.1041666666665819 0  1 0.1090277777777076 0  1 0.1138888888888306 0  1 0.118749999999959 0  1 0.1236111111110847 0  1 0.1284722222222077 0  0.995238095238089 0.1333333333333333 0  0.9904761904761719 0.1333333333333333 0  0.9857142857142888 0.1333333333333333 0  0.9809523809523778 0.1333333333333333 0  0.9761904761904948 0.1333333333333333 0  0.9714285714286179 0.1333333333333333 0  0.9666666666667534 0.1333333333333333 0  0.9619047619048208 0.1333333333333333 0  0.9571428571429254 0.1333333333333333 0  0.9523809523809988 0.1333333333333333 0  0.9476190476190879 0.1333333333333333 0  0.9428571428571615 0.1333333333333333 0  0.9380952380952443 0.1333333333333333 0  0.9333333333333333 0.1380952380952311 0  0.9333333333333333 0.1428571428571127 0  0.9333333333333333 0.1476190476190166 0  0.9333333333333333 0.1523809523809082 0  0.9333333333333333 0.1571428571427805 0  0.9333333333333333 0.1619047619046937 0  0.9333333333333333 0.1666666666665745 0  0.9333333333333333 0.1714285714284932 0  0.9333333333333333 0.1761904761904134 0  0.9333333333333333 0.1809523809523275 0  0.9333333333333333 0.185714285714247 0  0.9333333333333333 0.1904761904761665 0  0.9333333333333333 0.1952380952380805 0  0.9380952380952443 0.2 0  0.9428571428571615 0.2 0  0.9476190476190446 0.2 0  0.9523809523809555 0.2 0  0.9571428571428385 0.2 0  0.9619047619047154 0.2 0  0.96666666666658 0.2 0  0.9714285714285126 0.2 0  0.976190476190408 0.2 0  0.9809523809523345 0.2 0  0.9857142857142455 0.2 0  0.9904761904761719 0.2 0  0.995238095238089 0.2 0  1 0.2049382716049228 0  1 0.2098765432098617 0  1 0.2148148148147805 0  1 0.2197530864197075 0  1 0.2246913580246271 0  1 0.2296296296295531 0  1 0.2345679012344705 0  1 0.2395061728393821 0  1 0.244444444444336 0  1 0.2493827160492443 0  1 0.2543209876541471 0  1 0.259259259259105 0  1 0.2641975308640344 0  1 0.2691358024689626 0  1 0.2740740740739138 0  1 0.2790123456788717 0  1 0.2839506172838188 0  1 0.288888888888766 0  1 0.2938271604937239 0  1 0.298765432098671 0  1 0.3037037037036181 0  1 0.3086419753085761 0  1 0.313580246913534 0  1 0.3185185185184727 0  1 0.3234567901234283 0  1 0.3283950617283834 0  0.9949999999999791 0.3333333333333333 0  0.9899999999999584 0.3333333333333333 0  0.9849999999999375 0.3333333333333333 0  0.9799999999999167 0.3333333333333333 0  0.9749999999998958 0.3333333333333333 0  0.9699999999998751 0.3333333333333333 0  0.9649999999998542 0.3333333333333333 0  0.9599999999998334 0.3333333333333333 0  0.9549999999998126 0.3333333333333333 0  0.9499999999997918 0.3333333333333333 0  0.9449999999997709 0.3333333333333333 0  0.9399999999997501 0.3333333333333333 0  0.9349999999997293 0.3333333333333333 0  0.9299999999997085 0.3
[...]
<PointData  Vectors="Displacement"> 
<DataArray  type="Float64"  Name="Displacement"  NumberOfComponents="3" format="ascii">0.0000000000000000e+00 0.0000000000000000e+00 0.0000000000000000e+00  0.0000000000000000e+00 0.0000000000000000e+00 0.0000000000000000e+00  2.3858526560367427e-03 -2.5282986783943086e-03 0.0000000000000000e+00  3.6775712801470667e-03 -2.4437005542271243e-03 0.0000000000000000e+00  5.1672121318328346e-03 -1.4671636867272901e-03 0.0000000000000000e+00  4.8097464263216370e-03 -4.8179051263393325e-04 0.0000000000000000e+00  5.5348212678707730e-03 -1.6352190525375208e-04 0.0000000000000000e+00  5.8212830213424573e-03 -1.1613309233112963e-03 0.0000000000000000e+00  6.6326665026015313e-03 -8.9808051332605017e-04 0.0000000000000000e+00  0.0000000000000000e+00 0.0000000000000000e+00 0.0000000000000000e+00  0.0000000000000000e+00 0.0000000000000000e+00 0.0000000000000000e+00  0.0000000000000000e+00 0.0000000000000000e+00 0.0000000000000000e+00  0.0000000000000000e+00 0.0000000000000000e+00 0.0000000000000000e+00  0.0000000000000000e+00 0.0000000000000000e+00 0.0000000000000000e+00  0.0000000000000000e+00 0.0000000000000000e+00 0.0000000000000000e+00  0.0000000000000000e+00 0.0000000000000000e+00 0.0000000000000000e+00  0.0000000000000000e+00 0.0000000000000000e+00 0.0000000000000000e+00  0.0000000000000000e+00 0.0000000000000000e+00 0.0000000000000000e+00  0.0000000000000000e+00 0.0000000000000000e+00 0.0000000000000000e+00  0.0000000000000000e+00 0.0000000000000000e+00 0.0000000000000000e+00  0.0000000000000000e+00 0.0000000000000000e+00 0.0000000000000000e+00  0.0000000000000000e+00 0.0000000000000000e+00 0.0000000000000000e+00  0.0000000000000000e+00 0.0000000000000000e+00 0.0000000000000000e+00  0.0000000000000000e+00 0.0000000000000000e+00 0.0000000000000000e+00  0.0000000000000000e+00 0.0000000000000000e+00 0.0000000000000000e+00  0.0000000000000000e+00 0.0000000000000000e+00 0.0000000000000000e+00  0.0000000000000000e+00 0.0000000000000000e+00 0.0000000000000000e+00  0.0000000000000000e+00 0.0000000000000000e+00 0.0000000000000000e+00  0.0000000000000000e+00 0.0000000000000000e+00 0.0000000000000000e+00  0.0000000000000000e+00 0.0000000000000000e+00 0.0000000000000000e+00  0.0000000000000000e+00 0.0000000000000000e+00 0.0000000000000000e+00  0.0000000000000000e+00 0.0000000000000000e+00 0.0000000000000000e+00  0.0000000000000000e+00 0.0000000000000000e+00 0.0000000000000000e+00  0.0000000000000000e+00 0.0000000000000000e+00 0.0000000000000000e+00  0.0000000000000000e+00 0.0000000000000000e+00 0.0000000000000000e+00  0.0000000000000000e+00 0.0000000000000000e+00 0.0000000000000000e+00  0.0000000000000000e+00 0.0000000000000000e+00 0.0000000000000000e+00  0.0000000000000000e+00 0.0000000000000000e+00 0.0000000000000000e+00  0.0000000000000000e+00 0.0000000000000000e+00 0.0000000000000000e+00  0.0000000000000000e+00 0.0000000000000000e+00 0.0000000000000000e+00  0.0000000000000000e+00 0.0000000000000000e+00 0.0000000000000000e+00  0.0000000000000000e+00 0.0000000000000000e+00 0.0000000000000000e+00  0.0000000000000000e+00 0.0000000000000000e+00 0.0000000000000000e+00  0.0000000000000000e+00 0.0000000000000000e+00 0.0000000000000000e+00  0.0000000000000000e+00 0.0000000000000000e+00 0.0000000000000000e+00  0.0000000000000000e+00 0.0000000000000000e+00 0.0000000000000000e+00  0.0000000000000000e+00 0.0000000000000000e+00 0.0000000000000000e+00  0.0000000000000000e+00 0.0000000000000000e+00 0.0000000000000000e+00  0.0000000000000000e+00 0.0000000000000000e+00 0.0000000000000000e+00  0.0000000000000000e+00 0.0000000000000000e+00 0.0000000000000000e+00  0.0000000000000000e+00 0.0000000000000000e+00 0.0000000000000000e+00  0.0000000000000000e+00 0.0000000000000000e+00 0.0000000000000000e+00  0.0000000000000000e+00 0.0000000000000000e+00 0.0000000000000000e+00  0.0000000000000000e+00 0.0000000000000000e+00 0.0000000000000000e+00  0.0000000000000000e+00 0.0000000000000000e+00 0.0000000000000000e+00  0.0000000000000000e+00 0.0000000000000000e+00 0.0000000000000000e+00  0.0000000000000000e+00 0.0000000000000000e+00 0.0000000000000000e+00  0.0000000000000000e+00 0.0000000000000000e+00 0.0000000000000000e+00  0.0000000000000000e+00 0.0000000000000000e+00 0.0000000000000000e+00  0.0000000000000000e+00 0.0000000000000000e+00 0.0000000000000000e+00  0.0000000000000000e+00 0.0000000000000000e+00 0.0000000000000000e+00  0.0000000000000000e+00 0.0000000000000000e+00 0.0000000000000000e+00  0.0000000000000000e+00 0.0000000000000000e+00 0.0000000000000000e+00  0.0000000000000000e+00 0.0000000000000000e+00 0.0000000000000000e+00  0.0000000000000000e+00 0.0000000000000000e+00 0.0000000000000000e+00  0.0000000000000000e+00 0.0000000000000000e+00 0.0000000000000000e+00  0.0000000000000000e+00 0.0000000000000000e+00 0.0000000000000000e+00  0.0000000000000000e+00 0.0000000000000000e+00 0.0000000000000000e+00  0.0000000000000000e+00 0.0000000000000000e+00 0.0000000000000000e+00  0.0000000000000000e+00 0.0000000000000000e+00 0.0000000000000000e+00  0.0000000000000000e+00 0.0000000000000000e+00 0.0000000000000000e+00  0.0000000000000000e+00 0.0000000000000000e+00 0.0000000000000000e+00  0.0000000000000000e+00 0.0000000000000000e+00 0.0000000000000000e+00  0.0000000000000000e+00 0.0000000000000000e+00 0.0000000000000000e+00  0.0000000000000000e+00 0.0000000000000000e+00 0.0000000000000000e+00  -2.7543541596168995e-05 -2.7324093407892655e-05 0.0000000000000000e+00  -4.6424685187423497e-05 -5.3062102672306103e-05 0.0000000000000000e+00  -6.0307949565342084e-05 -8.3677294525652380e-05 0.0000000000000000e+00  -7.0067993418975260e-05 -1.1791720809011894e-04 0.0000000000000000e+00  -7.6187704537192822e-05 -1.5505548350783137e-04 0.0000000000000000e+00  -7.9145525488609632e-05 -1.9451829560983777e-04 0.0000000000000000e+00  -7.9297400884263905e-05 -2.3552320992105215e-04 0.0000000000000000e+00  -7.7203800019809500e-05 -2.7803450230294747e-04 0.0000000000000000e+00  -7.3022446603999327e-05 -3.2149504035570753e-04 0.0000000000000000e+00  -6.7188378788269178e-05 -3.6564628340802894e-04 0.0000000000000000e+00  -5.9999717509637472e-05 -4.1087307642379564e-04 0.0000000000000000e+00  -5.1602325658269602e-05 -4.5673563729556305e-04 0.0000000000000000e+00  -4.2141580200218357e-05 -5.0364975279689058e-04 0.0000000000000000e+00  -3.1632584695864484e-05 -5.5155352902045080e-04 0.0000000000000000e+00  -2.0244824407836679e-05 -6.0045640307635568e-04 0.0000000000000000e+00  -7.9725469208232943e-06 -6.5055186830328461e-04 0.0000000000000000e+00  5.1202837174688141e-06 -7.0153987412206417e-04 0.0000000000000000e+00  1.9036819826366122e-05 -7.5356196245537682e-04 0.0000000000000000e+00  3.3741446544046824e-05 -8.0667403161699131e-04 0.0000000000000000e+00  4.9295421019523127e-05 -8.6083567881726792e-04 0.0000000000000000e+00  6.5615632263904428e-05 -9.1592263505165916e-04 0.0000000000000000e+00  8.2695199585867222e-05 -9.7178345416356639e-04 0.0000000000000000e+00  1.0038409146974971e-04 -1.0287780489166287e-03 0.0000000000000000e+00  1.1859482514985575e-04 -1.0866245758392071e-03 0.0000000000000000e+00  1.3757729784758695e-04 -1.1454860870889925e-03 0.0000000000000000e+00  1.5709736054603864e-04 -1.2053228971166329e-03 0.0000000000000000e+00  1.7705890887099231e-04 -1.2660474923371621e-03 0.0000000000000000e+00  1.9747518779929542e-04 -1.3278022331168009e-03 0.0000000000000000e+00  2.1831686063911282e-04 -1.3906290755004872e-03 0.0000000000000000e+00  2.3954536981579046e-04 -1.4546098401644007e-03 0.0000000000000000e+00  2.6119296836594005e-04 -1.5198091967638821e-03 0.0000000000000000e+00  2.8330709429467683e-04 -1.5862169922576778e-03 0.0000000000000000e+00  3.0590582349473739e-04 -1.6537432191553595e-03 0.0000000000000000e+00  3.2908168185762532e-04 -1.7224277724088204e-03 0.0000000000000000e+00  3.5296356679437362e-04 -1.7921406531022786e-03 0.0000000000000000e+00  3.7766536737996560e-04 -1.8626490292549202e-03 0.0000000000000000e+00  4.0326950883678254e-04 -1.9335764269868578e-03 0.0000000000000000e+00  4.2971359720019015e-04 -2.0045082412503633e-03 0.0000000000000000e+00  4.5698219394423403e-04 -2.0752695724447234e-03 0.0000000000000000e+00  4.8503047973342373e-04 -2.1455115913820077e-03 0.0000000000000000e+00  5.1375366178940511e-04 -2.2149882277019226e-03 0.0000000000000000e+00  5.4307875269177404e-04 -2.2834991034892415e-03 0.0000000000000000e+00  5.7299961409436849e-04 -2.3508895344528180e-03 0.0000000000000000e+00  6.0352232045970250e-04 -2.4169300552691147e-03 0.0000000000000000e+00  6.3461132724874924e-04 -2.4813327618027651e-03 0.0000000000000000e+00  6.6629514748050601e-04 -2.5440103165179045e-03 0.0000000000000000e+00  6.9865674175882361e-04 -2.6046191405041056e-03 0.0000000000000000e+00  7.3162253437122058e-04 -2.6628182121471522e-03 0.0000000000000000e+00  7.6507701022244861e-04 -2.7182537273448583e-03 0.0000000000000000e+00  7.9887563520442877e-04 -2.7707262942006272e-03 0.0000000000000000e+00  8.3281602153061800e-04 -2.8199313770021768e-03 0.0000000000000000e+00  8.6654803120093135e-04 -2.8658138430899104e-03 0.0000000000000000e+00  8.9994827640510217e-04 -2.9086439670326322e-03 0.0000000000000000e+00  9.3279338189985930e-04 -2.9486466796747458e-03 0.0000000000000000e+00  9.6500595495551777e-04 -2.9861446833550943e-03 0.0000000000000000e+00  9.9645816728019358e-04 -3.0214063634044965e-03 0.0000000000000000e+00  1.0271412707476394e-03 -3.0546680883862965e-03 0.0000000000000000e+00  1.0570430293581274e-03 -3.0864862124108708e-03 0.0000000000000000e+00  1.0862175778548245e-03 -3.1174104302585329e-03 0.0000000000000000e+00  1.1147892688083666e-03 -3.1473417707424413e-03 0.0000000000000000e+00  1.1427632078961233e-03 -3.1766751737099096e-03 0.0000000000000000e+00  1.1701121792882696e-03 -3.2057204508081773e-03 0.0000000000000000e+00  1.1969745407659355e-03 -3.2345968305683721e-03 0.0000000000000000e+00  1.2233111643136254e-03 -3.2633102318583920e-03 0.0000000000000000e+00  1.2491359647951645e-03 -3.2921545680573553e-03 0.0000000000000000e+00  1.2745303545584077e-03 -3.3213271624591102e-03 0.0000000000000000e+00  1.2995260558510795e-03 -3.3509834445930894e-03 0.0000000000000000e+00  1.3241430404524507e-03 -3.3812604861074920e-03 0.0000000000000000e+00  1.3484290505152280e-03 -3.4123131622481864e-03 0.0000000000000000e+00  1.3724351802858604e-03 -3.4442173705686060e-03 0.0000000000000000e+00  1.3961160209319395e-03 -3.4770095574759392e-03 0.0000000000000000e+00  1.4194992779804777e-03 -3.5109399225033522e-03 0.0000000000000000e+00  1.4426325755657662e-03 -3.5461322585960569e-03 0.0000000000000000e+00  1.4655255912780617e-03 -3.5826858216555331e-03 0.0000000000000000e+00  1.4882070550434261e-03 -3.6207114440315307e-03 0.0000000000000000e+00  1.5107546651212883e-03 -3.6603319105311541e-03 0.0000000000000000e+00  1.5332613784216117e-03 -3.7014232604225795e-03 0.0000000000000000e+00  1.5556518942085871e-03 -3.7440467711825592e-03 0.0000000000000000e+00  1.5779684631505773e-03 -3.7883501883221198e-03 0.0000000000000000e+00  1.6002100000806817e-03 -3.8343715798049446e-03 0.0000000000000000e+00  1.6223750334786340e-03 -3.8821541759659728e-03 0.0000000000000000e+00  1.6444585312700504e-03 -3.9317088706994682e-03 0.0000000000000000e+00  1.6664166463437797e-03 -3.9830443424763128e-03 0.0000000000000000e+00  1.6882238214053584e-03 -4.0364837506464421e-03 0.0000000000000000e+00  1.7100534711231592e-03 -4.0922338770238258e-03 0.0000000000000000e+00  1.7320834479799172e-03 -4.1501215185418498e-03 0.0000000000000000e+00  1.7545244233057352e-03 -4.2102799519815395e-03 0.0000000000000000e+00  1.7777520229524725e-03 -4.2726027333080258e-03 0.0000000000000000e+00  1.8023011721919288e-03 -4.3365460103543061e-03 0.0000000000000000e+00  1.8286918967693397e-03 -4.4010406556331625e-03 0.0000000000000000e+00  1.8574321647552756e-03 -4.4649626801265153e-03 0.0000000000000000e+00  1.8894196305601770e-03 -4.5264611861949569e-03 0.0000000000000000e+00  1.9253904971705930e-03 -4.5824821530834857e-03 0.0000000000000000e+00  1.9650816814689039e-03 -4.6316376098895426e-03 0.0000000000000000e+00  2.0059999693139582e-03 -4.6688423457260453e-03 0.0000000000000000e+00  2.0496749111739011e-03 -4.6922058837401137e-03 0.0000000000000000e+00  2.0922654524225212e-03 -4.7027469372596786e-03 0.0000000000000000e+00  2.1316859219236905e-03 -4.7013527761930454e-03 0.0000000000000000e+00  2.1685073138968799e-03 -4.6918977597350756e-03 0.0000000000000000e+00  2.2035509954962873e-03 -4.6747216363485257e-03 0.0000000000000000e+00  2.2376914899101120e-03 -4.6519566038656099e-03 0.0000000000000000e+00  2.2712528292349312e-03 -4.6204686539133236e-03 0.0000000000000000e+00  2.3077057468128457e-03 -4.5777570091897974e-03 0.0000000000000000e+00  2.3438566729458940e-03 -4.5220050490702062e-03 0.0000000000000000e+00  2.3787483148292759e-03 -4.4526647065943458e-03 0.0000000000000000e+00  2.4120726773392532e-03 -4.3714797654504471e-03 0.0000000000000000e+00  2.4431193692205284e-03 -4.2800233245497404e-03 0.0000000000000000e+00  2.4720620170145713e-03 -4.1799129714361572e-03 0.0000000000000000e+00  2.4982946445794439e-03 -4.0728654045462118e-03 0.0000000000000000e+00  2.5222080629140942e-03 -3.9607642854109998e-03 0.0000000000000000e+00  2.5437995422319683e-03 -3.8464885134068742e-03 0.0000000000000000e+00  2.5630434360564228e-03 -3.7302234282048140e-03 0.0000000000000000e+00  2.5803253421433012e-03 -3.6134637806129696e-03 0.0000000000000000e+00  2.5959659515089567e-03 -3.4971867113148349e-03 0.0000000000000000e+00  2.6099980764124550e-03 -3.3824034913884334e-03 0.0000000000000000e+00  2.6227262160905605e-03 -3.2702589597399952e-03 0.0000000000000000e+00  2.6342132218723454e-03 -3.1611527381356528e-03 0.0000000000000000e+00  2.6443873731012615e-03 -3.0562590556681693e-03 0.0000000000000000e+00  2.6537688449994466e-03 -2.9560495674390806e-03 0.0000000000000000e+00  2.6615149917388835e-03 -2.8612869727259521e-03 0.0000000000000000e+00  2.6687568910068885e-03 -2.7721889307142848e-03 0.0000000000000000e+00  2.6739606315195849e-03 -2.6893189279129453e-03 0.0000000000000000e+00  2.6781898325544833e-03 -2.6136213389391272e-03 0.0000000000000000e+00  2.6817822485196117e-03 -2.5452922202022191e-03 0.0000000000000000e+00  2.6851213769239868e-03 -2.4839094422990124e-03 0.0000000000000000e+00  2.6885118325066524e-03 -2.4302576369614288e-03 0.0000000000000000e+00  2.6924430758354734e-03 -2.3830428937090318e-03 0.0000000000000000e+00  2.6967717935041050e-03 -2.3417932143546538e-03 0.0000000000000000e+00  2.7018260047653683e-03 -2.3064489243640423e-03 0.0000000000000000e+00  2.7076422600536961e-03 -2.2757089527714273e-03 0.0000000000000000e+00  2.7142593389505852e-03 -2.2488270297160886e-03 0.0000000000000000e+00  2.7214574168425731e-03 -2.2249398113981939e-03 0.0000000000000000e+00  2.7292061839781843e-03 -2.2034839160590468e-03 0.0000000000000000e+00  2.7373966334550285e-03 -2.1839046713680314e-03 0.0000000000000000e+00  2.7459809801558804e-03 -2.1654758088428790e-03 0.0000000000000000e+00  2.7548670858869376e-03 -2.1477770592753724e-03 0.0000000000000000e+00  2.7638010275936918e-03 -2.1305773419260693e-03 0.0000000000000000e+00  2.7727991635244425e-03 -2.1136415427800734e-03 0.0000000000000000e+00  2.7816117393725760e-03 -2.0971264398621670e-03 0.0000000000000000e+00  2.7902144748068016e-03 -2.0812486947751068e-03 0.0000000000000000e+00  2.7985674269562998e-03 -2.0661888183631854e-03 0.0000000000000000e+00  2.8067947317760391e-03 -2.0521650711278557e-03 0.0000000000000000e+00  2.8148295052000324e-03 -2.0391751732919774e-03 0.0000000000000000e+00  2.8224740809409520e-03 -2.0270751122439734e-03 0.0000000000000000e+00  2.8298948214495593e-03 -2.0164656673543760e-03 0.0000000000000000e+00  2.8368038353263369e-03 -2.0081532470720156e-03 0.0000000000000000e+00  2.8433282180176348e-03 -2.0022717525028425e-03 0.0000000000000000e+00  2.8495401159736003e-03 -1.9990207293994235e-03 0.0000000000000000e+00  2.8553240008123513e-03 -1.9987311148775980e-03 0.0000000000000000e+00  2.8607340665334417e-03 -2.0018839823246234e-03 0.0000000000000000e+00  2.8658375433969359e-03 -2.0086957495127301e-03 0.0000000000000000e+00  2.8706129087699120e-03 -2.0194196089797284e-03 0.0000000000000000e+00  2.8750981030187888e-03 -2.0342060042908387e-03 0.0000000000000000e+00  2.8792318365263585e-03 -2.0532381795614956e-03 0.0000000000000000e+00  2.8831156197492397e-03 -2.0772027910170411e-03 0.0000000000000000e+00  2.8869681501425253e-03 -2.1058757548707411e-03 0.0000000000000000e+00  2.8907298762925787e-03 -2.1392699772061854e-03 0.0000000000000000e+00  2.8945734618084202e-03 -2.1772803920554469e-03 0.0000000000000000e+00  2.8982988766296808e-03 -2.2196364637533926e-03 0.0000000000000000e+00  2.9020381938965004e-03 -2.2665436991628420e-03 0.0000000000000000e+00  2.9058475121020518e-03 -2.3175337377089717e-03 0.0000000000000000e+00  2.9096995190915761e-03 -2.3726668700733760e-03 0.0000000000000000e+00  2.9137924462707531e-03 -2.4315007457426561e-03 0.0000000000000000e+00  2.9181977292051459e-03 -2.4939456556177918e-03 0.0000000000000000e+00  2.9229842317253303e-03 -2.5585944452120313e-03 0.0000000000000000e+00  2.9282914293676525e-03 -2.6247683872964093e-03 0.0000000000000000e+00  2.9342438094528841e-03 -2.6923239332895320e-03 0.0000000000000000e+00  2.9415512634418544e-03 -2.7587995059947077e-03 0.0000000000000000e+00  2.9537210918974357e-03 -2.8174371050228215e-03 0.0000000000000000e+00  3.0697339033355442e-03 -2.7927919467542871e-03 0.0000000000000000e+00  3.0959371238855780e-03 -2.7052298567512450e-03 0.0000000000000000e+00  3.1058390514735099e-03 -2.6086461012245674e-03 0.0000000000000000e+00  3.1119826581329940e-03 -2.5129169783093441e-03 0.0000000000000000e+00  3.1218846211615910e-03 -2.4152463656252855e-03 0.0000000000000000e+00  3.1315475296821169e-03 -2.3197737101126928e-03 0.0000000000000000e+00  3.1392602632228130e-03 -2.2270605663235496e-03 0.0000000000000000e+00  3.1455869987357175e-03 -2.1357663942756558e-03 0.0000000000000000e+00  3.1476495306016787e-03 -2.0448903384109583e-03 0.0000000000000000e+00  3.1450965640740383e-03 -1.9597663518198701e-03 0.0000000000000000e+00  3.1389732342290730e-03 -1.8814437845061094e-03 0.0000000000000000e+00  3.1283321291385975e-03 -1.8089844851373440e-03 0.0000000000000000e+00  3.1117593376974902e-03 -1.7424681372516916e-03 0.0000000000000000e+00  3.0893560763561195e-03 -1.6837317858423224e-03 0.0000000000000000e+00  3.0616960405683660e-03 -1.6343129135714819e-03 0.0000000000000000e+00  3.0291144494165811e-03 -1.5946757870337347e-03 0.0000000000000000e+00  2.9920226005989183e-03 -1.5651502750330677e-03 0.0000000000000000e+00  2.9505036190427452e-03 -1.5459938004114269e-03 0.0000000000000000e+00  2.9040663406259752e-03 -1.5372460138815415e-03 0.0000000000000000e+00  2.8520911995623117e-03 -1.5409704997631534e-03 0.0000000000000000e+00  2.7951170809282088e-03 -1.5583978153987815e-03 0.0000000000000000e+00  2.7337546015028234e-03 -1.5913934638088908e-03 0.0000000000000000e+00  2.6695267184787016e-03 -1.6419300673841534e-03 0.0000000000000000e+00  2.6054865008439793e-03 -1.7108622759048676e-03 0.0000000000000000e+00  2.5437759980692339e-03 -1.7988563185443863e-03 0.0000000000000000e+00  2.4895626228294944e-03 -1.9032870946197077e-03 0.0000000000000000e+00  2.4416429665318332e-03 -2.0244975513071979e-03 0.0000000000000000e+00  2.4054050459014959e-03 -2.1551461288672781e-03 0.0000000000000000e+00  2.3853207969455948e-03 -2.2949150592119446e-03 0.0000000000000000e+00  2.3853523400805313e-03 -2.4128617464390604e-03 0.0000000000000000e+00  2.4905194304368368e-03 -2.5244401875362250e-03 0.0000000000000000e+00  2.5817250880113582e-03 -2.5222253828435892e-03 0.0000000000000000e+00  2.6662292438591763e-03 -2.5222846080923747e-03 0.0000000000000000e+00  2.7503331232570935e-03 -2.5223897097617467e-03 0.0000000000000000e+00  2.8346890673592380e-03 -2.5225754055306017e-03 0.0000000000000000e+00  2.9196647580934350e-03 -2.5239726624014208e-03 0.0000000000000000e+00  3.0509499377762476e-03 -2.5260212878675274e-03 0