<?xml version="1.0"?>
<VTKFile type="UnstructuredGrid"  version="0.1"  >
<UnstructuredGrid>
<Piece  NumberOfPoints="16065" NumberOfCells="31592">
<Points>
<DataArray  type="Float64"  NumberOfComponents="3"  format="ascii">0 0.3333333333333333 0  0 0 0  1 0 0  1 0.05555555555555555 0  1 0.1333333333333333 0  0.9333333333333333 0.1333333333333333 0  0.9333333333333333 0.2 0  1 0.2 0  1 0.3333333333333333 0  0 0.3283582089552355 0  0 0.3233830845771466 0  0 0.3184079601990478 0  0 0.3134328358209529 0  0 0.3084577114428612 0  0 0.3034825870647574 0  0 0.2985074626866487 0  0 0.2935323383085401 0  0 0.2885572139304335 0  0 0.2835820895523445 0  0 0.2786069651742469 0  0 0.2736318407961489 0  0 0.2686567164180402 0  0 0.2636815920399506 0  0 0.2587064676618518 0  0 0.2537313432837577 0  0 0.2487562189056677 0  0 0.2437810945275751 0  0 0.2388059701494822 0  0 0.233830845771385 0  0 0.228855721393291 0  0 0.2238805970151982 0  0 0.2189054726370999 0  0 0.213930348259007 0  0 0.2089552238809128 0  0 0.2039800995028158 0  0 0.199004975124723 0  0 0.1940298507466273 0  0 0.1890547263685318 0  0 0.1840796019904389 0  0 0.1791044776123418 0  0 0.1741293532342478 0  0 0.1691542288561549 0  0 0.1641791044780463 0  0 0.1592039800999219 0  0 0.1542288557217986 0  0 0.1492537313436784 0  0 0.144278606965554 0  0 0.1393034825874322 0  0 0.1343283582093106 0  0 0.1293532338311862 0  0 0.1243781094530658 0  0 0.1194029850749427 0  0 0.1144278606968183 0  0 0.1094527363186993 0  0 0.1044776119405749 0  0 0.09950248756245161 0  0 0.09452736318433147 0  0 0.08955223880620702 0  0 0.08457711442808519 0  0 0.07960199004996127 0  0 0.07462686567183563 0  0 0.06965174129371338 0  0 0.0646766169155949 0  0 0.05970149253746632 0  0 0.05472636815934701 0  0 0.04975124378122736 0  0 0.04477611940309911 0  0 0.03980099502498063 0  0 0.03482587064685805 0  0 0.02985074626873274 0  0 0.02487562189061426 0  0 0.01990049751248874 0  0 0.01492537313436632 0  0 0.009950248756247781 0  0 0.004975124378119478 0  0.00499999999999053 0 0  0.009999999999981104 0 0  0.01499999999997174 0 0  0.01999999999996237 0 0  0.02499999999995287 0 0  0.02999999999994307 0 0  0.03499999999993262 0 0  0.03999999999992186 0 0  0.04499999999991076 0 0  0.04999999999989966 0 0  0.05499999999988862 0 0  0.05999999999987837 0 0  0.06499999999986901 0 0  0.06999999999986051 0 0  0.07499999999985282 0 0  0.07999999999984518 0 0  0.08499999999983754 0 0  0.0899999999998299 0 0  0.09499999999982227 0 0  0.09999999999981463 0 0  0.104999999999807 0 0  0.1099999999997994 0 0  0.1149999999997918 0 0  0.1199999999997832 0 0  0.1249999999997738 0 0  0.1299999999997609 0 0  0.1349999999997473 0 0  0.1399999999997328 0 0  0.1449999999997182 0 0  0.1499999999997036 0 0  0.1549999999996891 0 0  0.1599999999996745 0 0  0.1649999999996599 0 0  0.1699999999996453 0 0  0.1749999999996308 0 0  0.1799999999996162 0 0  0.1849999999996016 0 0  0.189999999999587 0 0  0.1949999999995725 0 0  0.1999999999995579 0 0  0.2049999999995433 0 0  0.2099999999995288 0 0  0.2149999999995142 0 0  0.2199999999994996 0 0  0.224999999999485 0 0  0.2299999999994704 0 0  0.2349999999994558 0 0  0.2399999999994413 0 0  0.2449999999994267 0 0  0.2499999999994121 0 0  0.2549999999993976 0 0  0.259999999999383 0 0  0.2649999999993684 0 0  0.2699999999993538 0 0  0.2749999999993393 0 0  0.2799999999993247 0 0  0.2849999999993101 0 0  0.2899999999992955 0 0  0.2949999999992809 0 0  0.2999999999992664 0 0  0.3049999999992518 0 0  0.3099999999992372 0 0  0.3149999999992227 0 0  0.3199999999992081 0 0  0.3249999999991935 0 0  0.329999999999179 0 0  0.3349999999991644 0 0  0.3399999999991498 0 0  0.3449999999991352 0 0  0.3499999999991207 0 0  0.3549999999991061 0 0  0.3599999999990915 0 0  0.364999999999077 0 0  0.3699999999990624 0 0  0.3749999999990478 0 0  0.3799999999990332 0 0  0.3849999999990187 0 0  0.3899999999990041 0 0  0.3949999999989895 0 0  0.3999999999989749 0 0  0.4049999999989604 0 0  0.4099999999989458 0 0  0.4149999999989312 0 0  0.4199999999989167 0 0  0.4249999999989021 0 0  0.4299999999988875 0 0  0.4349999999988729 0 0  0.4399999999988584 0 0  0.4449999999988438 0 0  0.4499999999988292 0 0  0.4549999999988146 0 0  0.4599999999988 0 0  0.4649999999987854 0 0  0.4699999999987708 0 0  0.4749999999987564 0 0  0.4799999999987418 0 0  0.4849999999987272 0 0  0.4899999999987126 0 0  0.4949999999987019 0 0  0.4999999999986943 0 0  0.5049999999987005 0 0  0.5099999999987098 0 0  0.514999999998723 0 0  0.5199999999987361 0 0  0.5249999999987494 0 0  0.5299999999987626 0 0  0.5349999999987757 0 0  0.5399999999987888 0 0  0.544999999998802 0 0  0.5499999999988152 0 0  0.5549999999988283 0 0  0.5599999999988415 0 0  0.5649999999988546 0 0  0.5699999999988679 0 0  0.574999999998881 0 0  0.5799999999988942 0 0  0.5849999999989073 0 0  0.5899999999989205 0 0  0.5949999999989336 0 0  0.5999999999989468 0 0  0.6049999999989599 0 0  0.6099999999989731 0 0  0.6149999999989864 0 0  0.6199999999989995 0 0  0.6249999999990127 0 0  0.6299999999990258 0 0  0.634999999999039 0 0  0.6399999999990521 0 0  0.6449999999990653 0 0  0.6499999999990784 0 0  0.6549999999990916 0 0  0.6599999999991049 0 0  0.664999999999118 0 0  0.6699999999991312 0 0  0.6749999999991442 0 0  0.6799999999991574 0 0  0.6849999999991706 0 0  0.6899999999991837 0 0  0.6949999999991969 0 0  0.6999999999992101 0 0  0.7049999999992232 0 0  0.7099999999992365 0 0  0.7149999999992497 0 0  0.7199999999992628 0 0  0.724999999999276 0 0  0.7299999999992892 0 0  0.7349999999993022 0 0  0.7399999999993154 0 0  0.7449999999993285 0 0  0.7499999999993417 0 0  0.754999999999355 0 0  0.7599999999993681 0 0  0.7649999999993813 0 0  0.7699999999993945 0 0  0.7749999999994075 0 0  0.7799999999994207 0 0  0.7849999999994339 0 0  0.789999999999447 0 0  0.7949999999994602 0 0  0.7999999999994734 0 0  0.8049999999994866 0 0  0.8099999999994998 0 0  0.8149999999995129 0 0  0.8199999999995261 0 0  0.8249999999995393 0 0  0.8299999999995523 0 0  0.8349999999995655 0 0  0.8399999999995788 0 0  0.8449999999995919 0 0  0.8499999999996051 0 0  0.8549999999996183 0 0  0.8599999999996314 0 0  0.8649999999996446 0 0  0.8699999999996577 0 0  0.8749999999996709 0 0  0.8799999999996841 0 0  0.8849999999996971 0 0  0.8899999999997104 0 0  0.8949999999997236 0 0  0.8999999999997367 0 0  0.9049999999997499 0 0  0.9099999999997631 0 0  0.9149999999997762 0 0  0.9199999999997894 0 0  0.9249999999998026 0 0  0.9299999999998156 0 0  0.9349999999998289 0 0  0.939999999999842 0 0  0.9449999999998552 0 0  0.9499999999998684 0 0  0.9549999999998815 0 0  0.9599999999998947 0 0  0.9649999999999079 0 0  0.969999999999921 0 0  0.9749999999999343 0 0  0.9799999999999475 0 0  0.9849999999999605 0 0  0.9899999999999737 0 0  0.9949999999999868 0 0  1 0.004629629629621038 0  1 0.009259259259238989 0  1 0.01388888888885587 0  1 0.0185185185184723 0  1 0.02314814814808873 0  1 0.02777777777770583 0  1 0.03240740740734689 0  1 0.0370370370369886 0  1 0.04166666666663033 0  1 0.04629629629627208 0  1 0.05092592592591381 0  1 0.06041666666665547 0  1 0.0652777777777554 0  1 0.07013888888885125 0  1 0.07499999999994983 0  1 0.07986111111104839 0  1 0.08472222222214695 0  1 0.08958333333323469 0  1 0.09444444444433597 0  1 0.09930555555545895 0  1 0.1041666666665819 0  1 0.1090277777777076 0  1 0.1138888888888306 0  1 0.118749999999959 0  1 0.1236111111110847 0  1 0.1284722222222077 0  0.995238095238089 0.1333333333333333 0  0.9904761904761719 0.1333333333333333 0  0.9857142857142888 0.1333333333333333 0  0.9809523809523778 0.1333333333333333 0  0.9761904761904948 0.1333333333333333 0  0.9714285714286179 0.1333333333333333 0  0.9666666666667534 0.1333333333333333 0  0.9619047619048208 0.1333333333333333 0  0.9571428571429254 0.1333333333333333 0  0.9523809523809988 0.1333333333333333 0  0.9476190476190879 0.1333333333333333 0  0.9428571428571615 0.1333333333333333 0  0.9380952380952443 0.1333333333333333 0  0.9333333333333333 0.1380952380952311 0  0.9333333333333333 0.1428571428571127 0  0.9333333333333333 0.1476190476190166 0  0.9333333333333333 0.1523809523809082 0  0.9333333333333333 0.1571428571427805 0  0.9333333333333333 0.1619047619046937 0  0.9333333333333333 0.1666666666665745 0  0.9333333333333333 0.1714285714284932 0  0.9333333333333333 0.1761904761904134 0  0.9333333333333333 0.1809523809523275 0  0.9333333333333333 0.185714285714247 0  0.9333333333333333 0.1904761904761665 0  0.9333333333333333 0.1952380952380805 0  0.9380952380952443 0.2 0  0.9428571428571615 0.2 0  0.9476190476190446 0.2 0  0.9523809523809555 0.2 0  0.9571428571428385 0.2 0  0.9619047619047154 0.2 0  0.96666666666658 0.2 0  0.9714285714285126 0.2 0  0.976190476190408 0.2 0  0.9809523809523345 0.2 0  0.9857142857142455 0.2 0  0.9904761904761719 0.2 0  0.995238095238089 0.2 0  1 0.2049382716049228 0  1 0.2098765432098617 0  1 0.2148148148147805 0  1 0.2197530864197075 0  1 0.2246913580246271 0  1 0.2296296296295531 0  1 0.2345679012344705 0  1 0.2395061728393821 0  1 0.244444444444336 0  1 0.2493827160492443 0  1 0.2543209876541471 0  1 0.259259259259105 0  1 0.2641975308640344 0  1 0.2691358024689626 0  1 0.2740740740739138 0  1 0.2790123456788717 0  1 0.2839506172838188 0  1 0.288888888888766 0  1 0.2938271604937239 0  1 0.298765432098671 0  1 0.3037037037036181 0  1 0.3086419753085761 0  1 0.313580246913534 0  1 0.3185185185184727 0  1 0.3234567901234283 0  1 0.3283950617283834 0  0.9949999999999791 0.3333333333333333 0  0.9899999999999584 0.3333333333333333 0  0.9849999999999375 0.3333333333333333 0  0.9799999999999167 0.3333333333333333 0  0.9749999999998958 0.3333333333333333 0  0.9699999999998751 0.3333333333333333 0  0.9649999999998542 0.3333333333333333 0  0.9599999999998334 0.3333333333333333 0  0.9549999999998126 0.3333333333333333 0  0.9499999999997918 0.3333333333333333 0  0.9449999999997709 0.3333333333333333 0  0.9399999999997501 0.3333333333333333 0  0.9349999999997293 0.3333333333333333 0  0.9299999999997085 0.3
[...]
<PointData  Vectors="Displacement"> 
<DataArray  type="Float64"  Name="Displacement"  NumberOfComponents="3" format="ascii">0.0000000000000000e+00 0.0000000000000000e+00 0.0000000000000000e+00  0.0000000000000000e+00 0.0000000000000000e+00 0.0000000000000000e+00  2.3878831143274012e-03 -2.5293539173445586e-03 0.0000000000000000e+00  3.6802682643648503e-03 -2.4447229392322296e-03 0.0000000000000000e+00  5.1710409754056165e-03 -1.4677509742522341e-03 0.0000000000000000e+00  4.8133845061992990e-03 -4.8154617652751696e-04 0.0000000000000000e+00  5.5391043740793365e-03 -1.6307738325851018e-04 0.0000000000000000e+00  5.8257226876204512e-03 -1.1617414281560288e-03 0.0000000000000000e+00  6.6381119878281235e-03 -8.9837891082285239e-04 0.0000000000000000e+00  0.0000000000000000e+00 0.0000000000000000e+00 0.0000000000000000e+00  0.0000000000000000e+00 0.0000000000000000e+00 0.0000000000000000e+00  0.0000000000000000e+00 0.0000000000000000e+00 0.0000000000000000e+00  0.0000000000000000e+00 0.0000000000000000e+00 0.0000000000000000e+00  0.0000000000000000e+00 0.0000000000000000e+00 0.0000000000000000e+00  0.0000000000000000e+00 0.0000000000000000e+00 0.0000000000000000e+00  0.0000000000000000e+00 0.0000000000000000e+00 0.0000000000000000e+00  0.0000000000000000e+00 0.0000000000000000e+00 0.0000000000000000e+00  0.0000000000000000e+00 0.0000000000000000e+00 0.0000000000000000e+00  0.0000000000000000e+00 0.0000000000000000e+00 0.0000000000000000e+00  0.0000000000000000e+00 0.0000000000000000e+00 0.0000000000000000e+00  0.0000000000000000e+00 0.0000000000000000e+00 0.0000000000000000e+00  0.0000000000000000e+00 0.0000000000000000e+00 0.0000000000000000e+00  0.0000000000000000e+00 0.0000000000000000e+00 0.0000000000000000e+00  0.0000000000000000e+00 0.0000000000000000e+00 0.0000000000000000e+00  0.0000000000000000e+00 0.0000000000000000e+00 0.0000000000000000e+00  0.0000000000000000e+00 0.0000000000000000e+00 0.0000000000000000e+00  0.0000000000000000e+00 0.0000000000000000e+00 0.0000000000000000e+00  0.0000000000000000e+00 0.0000000000000000e+00 0.0000000000000000e+00  0.0000000000000000e+00 0.0000000000000000e+00 0.0000000000000000e+00  0.0000000000000000e+00 0.0000000000000000e+00 0.0000000000000000e+00  0.0000000000000000e+00 0.0000000000000000e+00 0.0000000000000000e+00  0.0000000000000000e+00 0.0000000000000000e+00 0.0000000000000000e+00  0.0000000000000000e+00 0.0000000000000000e+00 0.0000000000000000e+00  0.0000000000000000e+00 0.0000000000000000e+00 0.0000000000000000e+00  0.0000000000000000e+00 0.0000000000000000e+00 0.0000000000000000e+00  0.0000000000000000e+00 0.0000000000000000e+00 0.0000000000000000e+00  0.0000000000000000e+00 0.0000000000000000e+00 0.0000000000000000e+00  0.0000000000000000e+00 0.0000000000000000e+00 0.0000000000000000e+00  0.0000000000000000e+00 0.0000000000000000e+00 0.0000000000000000e+00  0.0000000000000000e+00 0.0000000000000000e+00 0.0000000000000000e+00  0.0000000000000000e+00 0.0000000000000000e+00 0.0000000000000000e+00  0.0000000000000000e+00 0.0000000000000000e+00 0.0000000000000000e+00  0.0000000000000000e+00 0.0000000000000000e+00 0.0000000000000000e+00  0.0000000000000000e+00 0.0000000000000000e+00 0.0000000000000000e+00  0.0000000000000000e+00 0.0000000000000000e+00 0.0000000000000000e+00  0.0000000000000000e+00 0.0000000000000000e+00 0.0000000000000000e+00  0.0000000000000000e+00 0.0000000000000000e+00 0.0000000000000000e+00  0.0000000000000000e+00 0.0000000000000000e+00 0.0000000000000000e+00  0.0000000000000000e+00 0.0000000000000000e+00 0.0000000000000000e+00  0.0000000000000000e+00 0.0000000000000000e+00 0.0000000000000000e+00  0.0000000000000000e+00 0.0000000000000000e+00 0.0000000000000000e+00  0.0000000000000000e+00 0.0000000000000000e+00 0.0000000000000000e+00  0.0000000000000000e+00 0.0000000000000000e+00 0.0000000000000000e+00  0.0000000000000000e+00 0.0000000000000000e+00 0.0000000000000000e+00  0.0000000000000000e+00 0.0000000000000000e+00 0.0000000000000000e+00  0.0000000000000000e+00 0.0000000000000000e+00 0.0000000000000000e+00  0.0000000000000000e+00 0.0000000000000000e+00 0.0000000000000000e+00  0.0000000000000000e+00 0.0000000000000000e+00 0.0000000000000000e+00  0.0000000000000000e+00 0.0000000000000000e+00 0.0000000000000000e+00  0.0000000000000000e+00 0.0000000000000000e+00 0.0000000000000000e+00  0.0000000000000000e+00 0.0000000000000000e+00 0.0000000000000000e+00  0.0000000000000000e+00 0.0000000000000000e+00 0.0000000000000000e+00  0.0000000000000000e+00 0.0000000000000000e+00 0.0000000000000000e+00  0.0000000000000000e+00 0.0000000000000000e+00 0.0000000000000000e+00  0.0000000000000000e+00 0.0000000000000000e+00 0.0000000000000000e+00  0.0000000000000000e+00 0.0000000000000000e+00 0.0000000000000000e+00  0.0000000000000000e+00 0.0000000000000000e+00 0.0000000000000000e+00  0.0000000000000000e+00 0.0000000000000000e+00 0.0000000000000000e+00  0.0000000000000000e+00 0.0000000000000000e+00 0.0000000000000000e+00  0.0000000000000000e+00 0.0000000000000000e+00 0.0000000000000000e+00  0.0000000000000000e+00 0.0000000000000000e+00 0.0000000000000000e+00  0.0000000000000000e+00 0.0000000000000000e+00 0.0000000000000000e+00  0.0000000000000000e+00 0.0000000000000000e+00 0.0000000000000000e+00  0.0000000000000000e+00 0.0000000000000000e+00 0.0000000000000000e+00  0.0000000000000000e+00 0.0000000000000000e+00 0.0000000000000000e+00  -2.7571919581251069e-05 -2.7349080976499752e-05 0.0000000000000000e+00  -4.6474383595424267e-05 -5.3110144865291730e-05 0.0000000000000000e+00  -6.0375114624495039e-05 -8.3753607987110780e-05 0.0000000000000000e+00  -7.0149275559792753e-05 -1.1802602838398085e-04 0.0000000000000000e+00  -7.6279994001352344e-05 -1.5520030012341454e-04 0.0000000000000000e+00  -7.9246030710436845e-05 -1.9470188390695293e-04 0.0000000000000000e+00  -7.9403593535962456e-05 -2.3574746534927113e-04 0.0000000000000000e+00  -7.7313666323356893e-05 -2.7830110622596602e-04 0.0000000000000000e+00  -7.3134059229956438e-05 -3.2180488252990346e-04 0.0000000000000000e+00  -6.7300215545456113e-05 -3.6600007034910361e-04 0.0000000000000000e+00  -6.0110512393979208e-05 -4.1127165057696535e-04 0.0000000000000000e+00  -5.1710919949212929e-05 -4.5717943440521394e-04 0.0000000000000000e+00  -4.2247067306905109e-05 -5.0413951057139529e-04 0.0000000000000000e+00  -3.1734013484606950e-05 -5.5208976791959951e-04 0.0000000000000000e+00  -2.0341349044779073e-05 -6.0103974607829804e-04 0.0000000000000000e+00  -8.0632575740269102e-06 -6.5118295168298214e-04 0.0000000000000000e+00  5.0362332636477661e-06 -7.0221908129009772e-04 0.0000000000000000e+00  1.8960294763451221e-05 -7.5428975847536552e-04 0.0000000000000000e+00  3.3673296293530232e-05 -8.0745081653687113e-04 0.0000000000000000e+00  4.9236531116975054e-05 -8.6166177773472005e-04 0.0000000000000000e+00  6.5566820929713898e-05 -9.1679823423902805e-04 0.0000000000000000e+00  8.2657277782692524e-05 -9.7270862374950308e-04 0.0000000000000000e+00  1.0035776403817504e-04 -1.0297530476855571e-03 0.0000000000000000e+00  1.1858070836818989e-04 -1.0876494525475749e-03 0.0000000000000000e+00  1.3757619406348228e-04 -1.1465610019870409e-03 0.0000000000000000e+00  1.5710986377561858e-04 -1.2064478982384465e-03 0.0000000000000000e+00  1.7708555198621921e-04 -1.2672226386395804e-03 0.0000000000000000e+00  1.9751648939659260e-04 -1.3290276610533924e-03 0.0000000000000000e+00  2.1837329986731783e-04 -1.3919049638054569e-03 0.0000000000000000e+00  2.3961737034007384e-04 -1.4559364353645674e-03 0.0000000000000000e+00  2.6128094159431648e-04 -1.5211868238757433e-03 0.0000000000000000e+00  2.8341143683691155e-04 -1.5876460105284003e-03 0.0000000000000000e+00  3.0602689262337565e-04 -1.6552240117501040e-03 0.0000000000000000e+00  3.2921984444112852e-04 -1.7239608533527895e-03 0.0000000000000000e+00  3.5311922035105255e-04 -1.7937265919320123e-03 0.0000000000000000e+00  3.7783896002639608e-04 -1.8642884137821435e-03 0.0000000000000000e+00  4.0346154242378105e-04 -1.9352697677406238e-03 0.0000000000000000e+00  4.2992456046397160e-04 -2.0062559434615877e-03 0.0000000000000000e+00  4.5721260909247603e-04 -2.0770720544374516e-03 0.0000000000000000e+00  4.8528089313441532e-04 -2.1473691383299188e-03 0.0000000000000000e+00  5.1402460426568303e-04 -2.2169010129216723e-03 0.0000000000000000e+00  5.4337074612749252e-04 -2.2854671949776883e-03 0.0000000000000000e+00  5.7331320226343603e-04 -2.3529128979330486e-03 0.0000000000000000e+00  6.0385805849498032e-04 -2.4190084901654753e-03 0.0000000000000000e+00  6.3496972756042238e-04 -2.4834658782889887e-03 0.0000000000000000e+00  6.6667671729919394e-04 -2.5461976686179011e-03 0.0000000000000000e+00  6.9906200164684159e-04 -2.6068600954662021e-03 0.0000000000000000e+00  7.3205192474183134e-04 -2.6651119676147526e-03 0.0000000000000000e+00  7.6553087624972680e-04 -2.7205993382144749e-03 0.0000000000000000e+00  7.9935423406539842e-04 -2.7731227705912868e-03 0.0000000000000000e+00  8.3331950404812952e-04 -2.8223775965924508e-03 0.0000000000000000e+00  8.6707635464133555e-04 -2.8683086943181429e-03 0.0000000000000000e+00  9.0050134267770387e-04 -2.9111865349144999e-03 0.0000000000000000e+00  9.3337099162049285e-04 -2.9512362034312296e-03 0.0000000000000000e+00  9.6560788264669320e-04 -2.9887805800014977e-03 0.0000000000000000e+00  9.9708413161986222e-04 -3.0240881777421490e-03 0.0000000000000000e+00  1.0277909819175006e-03 -3.0573954640328552e-03 0.0000000000000000e+00  1.0577161715631563e-03 -3.0892591465780180e-03 0.0000000000000000e+00  1.0869138891847028e-03 -3.1202292337671818e-03 0.0000000000000000e+00  1.1155085561998636e-03 -3.1502066550965638e-03 0.0000000000000000e+00  1.1435052743394803e-03 -3.1795865907086268e-03 0.0000000000000000e+00  1.1708768195971637e-03 -3.2086790548792529e-03 0.0000000000000000e+00  1.1977616605491693e-03 -3.2376032982379343e-03 0.0000000000000000e+00  1.2241206367062517e-03 -3.2663652033245640e-03 0.0000000000000000e+00  1.2499676836706553e-03 -3.2952588525532907e-03 0.0000000000000000e+00  1.2753842868926072e-03 -3.3244816600894330e-03 0.0000000000000000e+00  1.3004021990945117e-03 -3.3541891056429159e-03 0.0000000000000000e+00  1.3250414133996649e-03 -3.3845183041716076e-03 0.0000000000000000e+00  1.3493497195288589e-03 -3.4156241799778607e-03 0.0000000000000000e+00  1.3733782624698657e-03 -3.4475826043994691e-03 0.0000000000000000e+00  1.3970815902238165e-03 -3.4804299674789378e-03 0.0000000000000000e+00  1.4204874330949753e-03 -3.5144166006079985e-03 0.0000000000000000e+00  1.4436434517500162e-03 -3.5496663173786584e-03 0.0000000000000000e+00  1.4665593243068365e-03 -3.5862783803643763e-03 0.0000000000000000e+00  1.4892638002046458e-03 -3.6243636402449680e-03 0.0000000000000000e+00  1.5118346448945046e-03 -3.6640449141278806e-03 0.0000000000000000e+00  1.5343648928222112e-03 -3.7051980326756437e-03 0.0000000000000000e+00  1.5567791612914280e-03 -3.7478842580726136e-03 0.0000000000000000e+00  1.5791197209557458e-03 -3.7922514078823364e-03 0.0000000000000000e+00  1.6013854597427221e-03 -3.8383375173113854e-03 0.0000000000000000e+00  1.6235748772355657e-03 -3.8861858160803230e-03 0.0000000000000000e+00  1.6456829065262691e-03 -3.9358071581656684e-03 0.0000000000000000e+00  1.6676656283170744e-03 -3.9872101968099890e-03 0.0000000000000000e+00  1.6894974401075770e-03 -4.0407184046796964e-03 0.0000000000000000e+00  1.7113518942399957e-03 -4.0965387836882387e-03 0.0000000000000000e+00  1.7334070186989790e-03 -4.1544979221823757e-03 0.0000000000000000e+00  1.7558736951874289e-03 -4.2147292214418626e-03 0.0000000000000000e+00  1.7791278812686084e-03 -4.2771261155511841e-03 0.0000000000000000e+00  1.8037050526031188e-03 -4.3411442099040099e-03 0.0000000000000000e+00  1.8301257519168356e-03 -4.4057132378154873e-03 0.0000000000000000e+00  1.8588984716284775e-03 -4.4697080485531504e-03 0.0000000000000000e+00  1.8909218001887901e-03 -4.5312758214000491e-03 0.0000000000000000e+00  1.9269327352655443e-03 -4.5873593183954958e-03 0.0000000000000000e+00  1.9666678882308657e-03 -4.6365691021930085e-03 0.0000000000000000e+00  2.0076312686182780e-03 -4.6738146071673503e-03 0.0000000000000000e+00  2.0513541488506276e-03 -4.6972033801754194e-03 0.0000000000000000e+00  2.0939912811876009e-03 -4.7077553669429171e-03 0.0000000000000000e+00  2.1334547970700670e-03 -4.7063588778543551e-03 0.0000000000000000e+00  2.1703163334806587e-03 -4.6968925193541736e-03 0.0000000000000000e+00  2.2053981985940027e-03 -4.6796964238969970e-03 0.0000000000000000e+00  2.2395758899656937e-03 -4.6569050504007047e-03 0.0000000000000000e+00  2.2731737850944802e-03 -4.6253810389215730e-03 0.0000000000000000e+00  2.3096663451342291e-03 -4.5826209063691828e-03 0.0000000000000000e+00  2.3458565290960941e-03 -4.5268060779238848e-03 0.0000000000000000e+00  2.3807859976094528e-03 -4.4573879711463735e-03 0.0000000000000000e+00  2.4141464129161043e-03 -4.3761122662912084e-03 0.0000000000000000e+00  2.4452265880346540e-03 -4.2845538566550316e-03 0.0000000000000000e+00  2.4742003825743816e-03 -4.1843321362122054e-03 0.0000000000000000e+00  2.5004611707818247e-03 -4.0771656514908289e-03 0.0000000000000000e+00  2.5244002102008181e-03 -3.9649400683049816e-03 0.0000000000000000e+00  2.5460147337736071e-03 -3.8505373123234113e-03 0.0000000000000000e+00  2.5652790481961191e-03 -3.7341430043420828e-03 0.0000000000000000e+00  2.5825791254734825e-03 -3.6172535246183132e-03 0.0000000000000000e+00  2.5982359547039192e-03 -3.5008471780093500e-03 0.0000000000000000e+00  2.6122823905454420e-03 -3.3859364019474141e-03 0.0000000000000000e+00  2.6250231942511458e-03 -3.2736673170394933e-03 0.0000000000000000e+00  2.6365212900584375e-03 -3.1644401841348087e-03 0.0000000000000000e+00  2.6467048656220000e-03 -3.0594304552671167e-03 0.0000000000000000e+00  2.6560946401332814e-03 -2.9591105107895179e-03 0.0000000000000000e+00  2.6638471213690880e-03 -2.8642438178676771e-03 0.0000000000000000e+00  2.6710947959891641e-03 -2.7750483344883624e-03 0.0000000000000000e+00  2.6763019083277423e-03 -2.6920881359849829e-03 0.0000000000000000e+00  2.6805334590430572e-03 -2.6163084933172706e-03 0.0000000000000000e+00  2.6841278285966836e-03 -2.5479057398802504e-03 0.0000000000000000e+00  2.6874689547474557e-03 -2.4864569840115994e-03 0.0000000000000000e+00  2.6908616171515288e-03 -2.4327475511876470e-03 0.0000000000000000e+00  2.6947958348221305e-03 -2.3854820779469800e-03 0.0000000000000000e+00  2.6991280016834245e-03 -2.3441879410948797e-03 0.0000000000000000e+00  2.7041865214617188e-03 -2.3088052687996021e-03 0.0000000000000000e+00  2.7100079692622147e-03 -2.2780315145663767e-03 0.0000000000000000e+00  2.7166311668197387e-03 -2.2511195399776509e-03 0.0000000000000000e+00  2.7238360348757281e-03 -2.2272049800703894e-03 0.0000000000000000e+00  2.7315922048264294e-03 -2.2057237605043255e-03 0.0000000000000000e+00  2.7397905461792591e-03 -2.1861205728577315e-03 0.0000000000000000e+00  2.7483831998257771e-03 -2.1676683415838630e-03 0.0000000000000000e+00  2.7572779316083571e-03 -2.1499463281286074e-03 0.0000000000000000e+00  2.7662205294366692e-03 -2.1327231589551104e-03 0.0000000000000000e+00  2.7752273592410543e-03 -2.1157634925509502e-03 0.0000000000000000e+00  2.7840484236844967e-03 -2.0992242278290974e-03 0.0000000000000000e+00  2.7926593753332053e-03 -2.0833222602685982e-03 0.0000000000000000e+00  2.8010202670498605e-03 -2.0682382734913793e-03 0.0000000000000000e+00  2.8092553299636706e-03 -2.0541907191599994e-03 0.0000000000000000e+00  2.8172976123695620e-03 -2.0411773499426243e-03 0.0000000000000000e+00  2.8249492353163027e-03 -2.0290541190600780e-03 0.0000000000000000e+00  2.8323767320115201e-03 -2.0184223858079205e-03 0.0000000000000000e+00  2.8392919556110927e-03 -2.0100892896293926e-03 0.0000000000000000e+00  2.8458221086116123e-03 -2.0041889097987074e-03 0.0000000000000000e+00  2.8520394037356588e-03 -2.0009210110411534e-03 0.0000000000000000e+00  2.8578282157941601e-03 -2.0006168439094425e-03 0.0000000000000000e+00  2.8632427731613017e-03 -2.0037580374737568e-03 0.0000000000000000e+00  2.8683503956468790e-03 -2.0105611693975235e-03 0.0000000000000000e+00  2.8731295373349468e-03 -2.0212796969313975e-03 0.0000000000000000e+00  2.8776181647458313e-03 -2.0360642179887175e-03 0.0000000000000000e+00  2.8817549588962955e-03 -2.0550981873968485e-03 0.0000000000000000e+00  2.8856415374432969e-03 -2.0790689931487125e-03 0.0000000000000000e+00  2.8894968298303204e-03 -2.1077521856120089e-03 0.0000000000000000e+00  2.8932612265304852e-03 -2.1411607682298413e-03 0.0000000000000000e+00  2.8971075757551882e-03 -2.1791894191389755e-03 0.0000000000000000e+00  2.9008356098707637e-03 -2.2215674689447431e-03 0.0000000000000000e+00  2.9045775655453156e-03 -2.2685005648785902e-03 0.0000000000000000e+00  2.9083895647239858e-03 -2.3195197689717287e-03 0.0000000000000000e+00  2.9122442661490017e-03 -2.3746855369647405e-03 0.0000000000000000e+00  2.9163400779882473e-03 -2.4335551514754685e-03 0.0000000000000000e+00  2.9207484929738531e-03 -2.4960387329915736e-03 0.0000000000000000e+00  2.9255384779911311e-03 -2.5607279959354765e-03 0.0000000000000000e+00  2.9308495263866744e-03 -2.6269436328506704e-03 0.0000000000000000e+00  2.9368062993707909e-03 -2.6945420249773573e-03 0.0000000000000000e+00  2.9441194686696120e-03 -2.7610593167578458e-03 0.0000000000000000e+00  2.9562993376364408e-03 -2.8197311717860565e-03 0.0000000000000000e+00  3.0724126912069173e-03 -2.7950474578232612e-03 0.0000000000000000e+00  3.0986380764823312e-03 -2.7073905981187876e-03 0.0000000000000000e+00  3.1085479372885568e-03 -2.6107032629891285e-03 0.0000000000000000e+00  3.1146962737791570e-03 -2.5148702764240661e-03 0.0000000000000000e+00  3.1246059852827615e-03 -2.4170932319214308e-03 0.0000000000000000e+00  3.1342762875718336e-03 -2.3215145816388614e-03 0.0000000000000000e+00  3.1419945470582979e-03 -2.2286967950706977e-03 0.0000000000000000e+00  3.1483250054847442e-03 -2.1372986106736568e-03 0.0000000000000000e+00  3.1503877677648727e-03 -2.0463184158148102e-03 0.0000000000000000e+00  3.1478307988478003e-03 -1.9610937331034830e-03 0.0000000000000000e+00  3.1416998809644684e-03 -1.8826750662423537e-03 0.0000000000000000e+00  3.1310470328413990e-03 -1.8101241912820934e-03 0.0000000000000000e+00  3.1144574890217313e-03 -1.7435204886366211e-03 0.0000000000000000e+00  3.0920324154840931e-03 -1.6847023471218076e-03 0.0000000000000000e+00  3.0643458922430247e-03 -1.6352084276331142e-03 0.0000000000000000e+00  3.0317334351385315e-03 -1.5955034888192302e-03 0.0000000000000000e+00  2.9946066870332388e-03 -1.5659179591057328e-03 0.0000000000000000e+00  2.9530488435086160e-03 -1.5467094479276735e-03 0.0000000000000000e+00  2.9065683473711791e-03 -1.5379178713595106e-03 0.0000000000000000e+00  2.8545450586295127e-03 -1.5416085549627729e-03 0.0000000000000000e+00  2.7975183170107186e-03 -1.5590133250617416e-03 0.0000000000000000e+00  2.7360993520077139e-03 -1.5919995440313347e-03 0.0000000000000000e+00  2.6718126367978267e-03 -1.6425416493467955e-03 0.0000000000000000e+00  2.6077140471663061e-03 -1.7114949662257084e-03 0.0000000000000000e+00  2.5459476083595969e-03 -1.7995262801999651e-03 0.0000000000000000e+00  2.4916852160967781e-03 -1.9040080918152286e-03 0.0000000000000000e+00  2.4437226110298332e-03 -2.0252838591766388e-03 0.0000000000000000e+00  2.4074523814732606e-03 -2.1560052987258716e-03 0.0000000000000000e+00  2.3873508106538547e-03 -2.2958542179836224e-03 0.0000000000000000e+00  2.3873823566443529e-03 -2.4138601383395285e-03 0.0000000000000000e+00  2.4926005736715423e-03 -2.5254917693901331e-03 0.0000000000000000e+00  2.5838443020246649e-03 -2.5232744765392432e-03 0.0000000000000000e+00  2.6683788887439707e-03 -2.5233337944070345e-03 0.0000000000000000e+00  2.7525124837274105e-03 -2.5234391015511049e-03 0.0000000000000000e+00  2.8368980704599417e-03 -2.5236251122461462e-03 0.0000000000000000e+00  2.9219037884854332e-03 -2.5250238618176905e-03 0.0000000000000000e+00  3.0532654862130220e-03 -2.5270747317070793e-03 0