<?xml version="1.0"?>
<VTKFile type="UnstructuredGrid"  version="0.1"  >
<UnstructuredGrid>
<Piece  NumberOfPoints="16065" NumberOfCells="31592">
<Points>
<DataArray  type="Float64"  NumberOfComponents="3"  format="ascii">0 0.3333333333333333 0  0 0 0  1 0 0  1 0.05555555555555555 0  1 0.1333333333333333 0  0.9333333333333333 0.1333333333333333 0  0.9333333333333333 0.2 0  1 0.2 0  1 0.3333333333333333 0  0 0.3283582089552355 0  0 0.3233830845771466 0  0 0.3184079601990478 0  0 0.3134328358209529 0  0 0.3084577114428612 0  0 0.3034825870647574 0  0 0.2985074626866487 0  0 0.2935323383085401 0  0 0.2885572139304335 0  0 0.2835820895523445 0  0 0.2786069651742469 0  0 0.2736318407961489 0  0 0.2686567164180402 0  0 0.2636815920399506 0  0 0.2587064676618518 0  0 0.2537313432837577 0  0 0.2487562189056677 0  0 0.2437810945275751 0  0 0.2388059701494822 0  0 0.233830845771385 0  0 0.228855721393291 0  0 0.2238805970151982 0  0 0.2189054726370999 0  0 0.213930348259007 0  0 0.2089552238809128 0  0 0.2039800995028158 0  0 0.199004975124723 0  0 0.1940298507466273 0  0 0.1890547263685318 0  0 0.1840796019904389 0  0 0.1791044776123418 0  0 0.1741293532342478 0  0 0.1691542288561549 0  0 0.1641791044780463 0  0 0.1592039800999219 0  0 0.1542288557217986 0  0 0.1492537313436784 0  0 0.144278606965554 0  0 0.1393034825874322 0  0 0.1343283582093106 0  0 0.1293532338311862 0  0 0.1243781094530658 0  0 0.1194029850749427 0  0 0.1144278606968183 0  0 0.1094527363186993 0  0 0.1044776119405749 0  0 0.09950248756245161 0  0 0.09452736318433147 0  0 0.08955223880620702 0  0 0.08457711442808519 0  0 0.07960199004996127 0  0 0.07462686567183563 0  0 0.06965174129371338 0  0 0.0646766169155949 0  0 0.05970149253746632 0  0 0.05472636815934701 0  0 0.04975124378122736 0  0 0.04477611940309911 0  0 0.03980099502498063 0  0 0.03482587064685805 0  0 0.02985074626873274 0  0 0.02487562189061426 0  0 0.01990049751248874 0  0 0.01492537313436632 0  0 0.009950248756247781 0  0 0.004975124378119478 0  0.00499999999999053 0 0  0.009999999999981104 0 0  0.01499999999997174 0 0  0.01999999999996237 0 0  0.02499999999995287 0 0  0.02999999999994307 0 0  0.03499999999993262 0 0  0.03999999999992186 0 0  0.04499999999991076 0 0  0.04999999999989966 0 0  0.05499999999988862 0 0  0.05999999999987837 0 0  0.06499999999986901 0 0  0.06999999999986051 0 0  0.07499999999985282 0 0  0.07999999999984518 0 0  0.08499999999983754 0 0  0.0899999999998299 0 0  0.09499999999982227 0 0  0.09999999999981463 0 0  0.104999999999807 0 0  0.1099999999997994 0 0  0.1149999999997918 0 0  0.1199999999997832 0 0  0.1249999999997738 0 0  0.1299999999997609 0 0  0.1349999999997473 0 0  0.1399999999997328 0 0  0.1449999999997182 0 0  0.1499999999997036 0 0  0.1549999999996891 0 0  0.1599999999996745 0 0  0.1649999999996599 0 0  0.1699999999996453 0 0  0.1749999999996308 0 0  0.1799999999996162 0 0  0.1849999999996016 0 0  0.189999999999587 0 0  0.1949999999995725 0 0  0.1999999999995579 0 0  0.2049999999995433 0 0  0.2099999999995288 0 0  0.2149999999995142 0 0  0.2199999999994996 0 0  0.224999999999485 0 0  0.2299999999994704 0 0  0.2349999999994558 0 0  0.2399999999994413 0 0  0.2449999999994267 0 0  0.2499999999994121 0 0  0.2549999999993976 0 0  0.259999999999383 0 0  0.2649999999993684 0 0  0.2699999999993538 0 0  0.2749999999993393 0 0  0.2799999999993247 0 0  0.2849999999993101 0 0  0.2899999999992955 0 0  0.2949999999992809 0 0  0.2999999999992664 0 0  0.3049999999992518 0 0  0.3099999999992372 0 0  0.3149999999992227 0 0  0.3199999999992081 0 0  0.3249999999991935 0 0  0.329999999999179 0 0  0.3349999999991644 0 0  0.3399999999991498 0 0  0.3449999999991352 0 0  0.3499999999991207 0 0  0.3549999999991061 0 0  0.3599999999990915 0 0  0.364999999999077 0 0  0.3699999999990624 0 0  0.3749999999990478 0 0  0.3799999999990332 0 0  0.3849999999990187 0 0  0.3899999999990041 0 0  0.3949999999989895 0 0  0.3999999999989749 0 0  0.4049999999989604 0 0  0.4099999999989458 0 0  0.4149999999989312 0 0  0.4199999999989167 0 0  0.4249999999989021 0 0  0.4299999999988875 0 0  0.4349999999988729 0 0  0.4399999999988584 0 0  0.4449999999988438 0 0  0.4499999999988292 0 0  0.4549999999988146 0 0  0.4599999999988 0 0  0.4649999999987854 0 0  0.4699999999987708 0 0  0.4749999999987564 0 0  0.4799999999987418 0 0  0.4849999999987272 0 0  0.4899999999987126 0 0  0.4949999999987019 0 0  0.4999999999986943 0 0  0.5049999999987005 0 0  0.5099999999987098 0 0  0.514999999998723 0 0  0.5199999999987361 0 0  0.5249999999987494 0 0  0.5299999999987626 0 0  0.5349999999987757 0 0  0.5399999999987888 0 0  0.544999999998802 0 0  0.5499999999988152 0 0  0.5549999999988283 0 0  0.5599999999988415 0 0  0.5649999999988546 0 0  0.5699999999988679 0 0  0.574999999998881 0 0  0.5799999999988942 0 0  0.5849999999989073 0 0  0.5899999999989205 0 0  0.5949999999989336 0 0  0.5999999999989468 0 0  0.6049999999989599 0 0  0.6099999999989731 0 0  0.6149999999989864 0 0  0.6199999999989995 0 0  0.6249999999990127 0 0  0.6299999999990258 0 0  0.634999999999039 0 0  0.6399999999990521 0 0  0.6449999999990653 0 0  0.6499999999990784 0 0  0.6549999999990916 0 0  0.6599999999991049 0 0  0.664999999999118 0 0  0.6699999999991312 0 0  0.6749999999991442 0 0  0.6799999999991574 0 0  0.6849999999991706 0 0  0.6899999999991837 0 0  0.6949999999991969 0 0  0.6999999999992101 0 0  0.7049999999992232 0 0  0.7099999999992365 0 0  0.7149999999992497 0 0  0.7199999999992628 0 0  0.724999999999276 0 0  0.7299999999992892 0 0  0.7349999999993022 0 0  0.7399999999993154 0 0  0.7449999999993285 0 0  0.7499999999993417 0 0  0.754999999999355 0 0  0.7599999999993681 0 0  0.7649999999993813 0 0  0.7699999999993945 0 0  0.7749999999994075 0 0  0.7799999999994207 0 0  0.7849999999994339 0 0  0.789999999999447 0 0  0.7949999999994602 0 0  0.7999999999994734 0 0  0.8049999999994866 0 0  0.8099999999994998 0 0  0.8149999999995129 0 0  0.8199999999995261 0 0  0.8249999999995393 0 0  0.8299999999995523 0 0  0.8349999999995655 0 0  0.8399999999995788 0 0  0.8449999999995919 0 0  0.8499999999996051 0 0  0.8549999999996183 0 0  0.8599999999996314 0 0  0.8649999999996446 0 0  0.8699999999996577 0 0  0.8749999999996709 0 0  0.8799999999996841 0 0  0.8849999999996971 0 0  0.8899999999997104 0 0  0.8949999999997236 0 0  0.8999999999997367 0 0  0.9049999999997499 0 0  0.9099999999997631 0 0  0.9149999999997762 0 0  0.9199999999997894 0 0  0.9249999999998026 0 0  0.9299999999998156 0 0  0.9349999999998289 0 0  0.939999999999842 0 0  0.9449999999998552 0 0  0.9499999999998684 0 0  0.9549999999998815 0 0  0.9599999999998947 0 0  0.9649999999999079 0 0  0.969999999999921 0 0  0.9749999999999343 0 0  0.9799999999999475 0 0  0.9849999999999605 0 0  0.9899999999999737 0 0  0.9949999999999868 0 0  1 0.004629629629621038 0  1 0.009259259259238989 0  1 0.01388888888885587 0  1 0.0185185185184723 0  1 0.02314814814808873 0  1 0.02777777777770583 0  1 0.03240740740734689 0  1 0.0370370370369886 0  1 0.04166666666663033 0  1 0.04629629629627208 0  1 0.05092592592591381 0  1 0.06041666666665547 0  1 0.0652777777777554 0  1 0.07013888888885125 0  1 0.07499999999994983 0  1 0.07986111111104839 0  1 0.08472222222214695 0  1 0.08958333333323469 0  1 0.09444444444433597 0  1 0.09930555555545895 0  1 0.1041666666665819 0  1 0.1090277777777076 0  1 0.1138888888888306 0  1 0.118749999999959 0  1 0.1236111111110847 0  1 0.1284722222222077 0  0.995238095238089 0.1333333333333333 0  0.9904761904761719 0.1333333333333333 0  0.9857142857142888 0.1333333333333333 0  0.9809523809523778 0.1333333333333333 0  0.9761904761904948 0.1333333333333333 0  0.9714285714286179 0.1333333333333333 0  0.9666666666667534 0.1333333333333333 0  0.9619047619048208 0.1333333333333333 0  0.9571428571429254 0.1333333333333333 0  0.9523809523809988 0.1333333333333333 0  0.9476190476190879 0.1333333333333333 0  0.9428571428571615 0.1333333333333333 0  0.9380952380952443 0.1333333333333333 0  0.9333333333333333 0.1380952380952311 0  0.9333333333333333 0.1428571428571127 0  0.9333333333333333 0.1476190476190166 0  0.9333333333333333 0.1523809523809082 0  0.9333333333333333 0.1571428571427805 0  0.9333333333333333 0.1619047619046937 0  0.9333333333333333 0.1666666666665745 0  0.9333333333333333 0.1714285714284932 0  0.9333333333333333 0.1761904761904134 0  0.9333333333333333 0.1809523809523275 0  0.9333333333333333 0.185714285714247 0  0.9333333333333333 0.1904761904761665 0  0.9333333333333333 0.1952380952380805 0  0.9380952380952443 0.2 0  0.9428571428571615 0.2 0  0.9476190476190446 0.2 0  0.9523809523809555 0.2 0  0.9571428571428385 0.2 0  0.9619047619047154 0.2 0  0.96666666666658 0.2 0  0.9714285714285126 0.2 0  0.976190476190408 0.2 0  0.9809523809523345 0.2 0  0.9857142857142455 0.2 0  0.9904761904761719 0.2 0  0.995238095238089 0.2 0  1 0.2049382716049228 0  1 0.2098765432098617 0  1 0.2148148148147805 0  1 0.2197530864197075 0  1 0.2246913580246271 0  1 0.2296296296295531 0  1 0.2345679012344705 0  1 0.2395061728393821 0  1 0.244444444444336 0  1 0.2493827160492443 0  1 0.2543209876541471 0  1 0.259259259259105 0  1 0.2641975308640344 0  1 0.2691358024689626 0  1 0.2740740740739138 0  1 0.2790123456788717 0  1 0.2839506172838188 0  1 0.288888888888766 0  1 0.2938271604937239 0  1 0.298765432098671 0  1 0.3037037037036181 0  1 0.3086419753085761 0  1 0.313580246913534 0  1 0.3185185185184727 0  1 0.3234567901234283 0  1 0.3283950617283834 0  0.9949999999999791 0.3333333333333333 0  0.9899999999999584 0.3333333333333333 0  0.9849999999999375 0.3333333333333333 0  0.9799999999999167 0.3333333333333333 0  0.9749999999998958 0.3333333333333333 0  0.9699999999998751 0.3333333333333333 0  0.9649999999998542 0.3333333333333333 0  0.9599999999998334 0.3333333333333333 0  0.9549999999998126 0.3333333333333333 0  0.9499999999997918 0.3333333333333333 0  0.9449999999997709 0.3333333333333333 0  0.9399999999997501 0.3333333333333333 0  0.9349999999997293 0.3333333333333333 0  0.9299999999997085 0.3
[...]
<PointData  Vectors="Displacement"> 
<DataArray  type="Float64"  Name="Displacement"  NumberOfComponents="3" format="ascii">0.0000000000000000e+00 0.0000000000000000e+00 0.0000000000000000e+00  0.0000000000000000e+00 0.0000000000000000e+00 0.0000000000000000e+00  2.3797617497265710e-03 -2.5251835723092671e-03 0.0000000000000000e+00  3.6694023396625641e-03 -2.4406899869882292e-03 0.0000000000000000e+00  5.1556068845288860e-03 -1.4655296613620391e-03 0.0000000000000000e+00  4.7987278805547377e-03 -4.8265964656368738e-04 0.0000000000000000e+00  5.5218747245853782e-03 -1.6500222500585163e-04 0.0000000000000000e+00  5.8078565551914303e-03 -1.1602429534095452e-03 0.0000000000000000e+00  6.6162951999454095e-03 -8.9734384810468836e-04 0.0000000000000000e+00  0.0000000000000000e+00 0.0000000000000000e+00 0.0000000000000000e+00  0.0000000000000000e+00 0.0000000000000000e+00 0.0000000000000000e+00  0.0000000000000000e+00 0.0000000000000000e+00 0.0000000000000000e+00  0.0000000000000000e+00 0.0000000000000000e+00 0.0000000000000000e+00  0.0000000000000000e+00 0.0000000000000000e+00 0.0000000000000000e+00  0.0000000000000000e+00 0.0000000000000000e+00 0.0000000000000000e+00  0.0000000000000000e+00 0.0000000000000000e+00 0.0000000000000000e+00  0.0000000000000000e+00 0.0000000000000000e+00 0.0000000000000000e+00  0.0000000000000000e+00 0.0000000000000000e+00 0.0000000000000000e+00  0.0000000000000000e+00 0.0000000000000000e+00 0.0000000000000000e+00  0.0000000000000000e+00 0.0000000000000000e+00 0.0000000000000000e+00  0.0000000000000000e+00 0.0000000000000000e+00 0.0000000000000000e+00  0.0000000000000000e+00 0.0000000000000000e+00 0.0000000000000000e+00  0.0000000000000000e+00 0.0000000000000000e+00 0.0000000000000000e+00  0.0000000000000000e+00 0.0000000000000000e+00 0.0000000000000000e+00  0.0000000000000000e+00 0.0000000000000000e+00 0.0000000000000000e+00  0.0000000000000000e+00 0.0000000000000000e+00 0.0000000000000000e+00  0.0000000000000000e+00 0.0000000000000000e+00 0.0000000000000000e+00  0.0000000000000000e+00 0.0000000000000000e+00 0.0000000000000000e+00  0.0000000000000000e+00 0.0000000000000000e+00 0.0000000000000000e+00  0.0000000000000000e+00 0.0000000000000000e+00 0.0000000000000000e+00  0.0000000000000000e+00 0.0000000000000000e+00 0.0000000000000000e+00  0.0000000000000000e+00 0.0000000000000000e+00 0.0000000000000000e+00  0.0000000000000000e+00 0.0000000000000000e+00 0.0000000000000000e+00  0.0000000000000000e+00 0.0000000000000000e+00 0.0000000000000000e+00  0.0000000000000000e+00 0.0000000000000000e+00 0.0000000000000000e+00  0.0000000000000000e+00 0.0000000000000000e+00 0.0000000000000000e+00  0.0000000000000000e+00 0.0000000000000000e+00 0.0000000000000000e+00  0.0000000000000000e+00 0.0000000000000000e+00 0.0000000000000000e+00  0.0000000000000000e+00 0.0000000000000000e+00 0.0000000000000000e+00  0.0000000000000000e+00 0.0000000000000000e+00 0.0000000000000000e+00  0.0000000000000000e+00 0.0000000000000000e+00 0.0000000000000000e+00  0.0000000000000000e+00 0.0000000000000000e+00 0.0000000000000000e+00  0.0000000000000000e+00 0.0000000000000000e+00 0.0000000000000000e+00  0.0000000000000000e+00 0.0000000000000000e+00 0.0000000000000000e+00  0.0000000000000000e+00 0.0000000000000000e+00 0.0000000000000000e+00  0.0000000000000000e+00 0.0000000000000000e+00 0.0000000000000000e+00  0.0000000000000000e+00 0.0000000000000000e+00 0.0000000000000000e+00  0.0000000000000000e+00 0.0000000000000000e+00 0.0000000000000000e+00  0.0000000000000000e+00 0.0000000000000000e+00 0.0000000000000000e+00  0.0000000000000000e+00 0.0000000000000000e+00 0.0000000000000000e+00  0.0000000000000000e+00 0.0000000000000000e+00 0.0000000000000000e+00  0.0000000000000000e+00 0.0000000000000000e+00 0.0000000000000000e+00  0.0000000000000000e+00 0.0000000000000000e+00 0.0000000000000000e+00  0.0000000000000000e+00 0.0000000000000000e+00 0.0000000000000000e+00  0.0000000000000000e+00 0.0000000000000000e+00 0.0000000000000000e+00  0.0000000000000000e+00 0.0000000000000000e+00 0.0000000000000000e+00  0.0000000000000000e+00 0.0000000000000000e+00 0.0000000000000000e+00  0.0000000000000000e+00 0.0000000000000000e+00 0.0000000000000000e+00  0.0000000000000000e+00 0.0000000000000000e+00 0.0000000000000000e+00  0.0000000000000000e+00 0.0000000000000000e+00 0.0000000000000000e+00  0.0000000000000000e+00 0.0000000000000000e+00 0.0000000000000000e+00  0.0000000000000000e+00 0.0000000000000000e+00 0.0000000000000000e+00  0.0000000000000000e+00 0.0000000000000000e+00 0.0000000000000000e+00  0.0000000000000000e+00 0.0000000000000000e+00 0.0000000000000000e+00  0.0000000000000000e+00 0.0000000000000000e+00 0.0000000000000000e+00  0.0000000000000000e+00 0.0000000000000000e+00 0.0000000000000000e+00  0.0000000000000000e+00 0.0000000000000000e+00 0.0000000000000000e+00  0.0000000000000000e+00 0.0000000000000000e+00 0.0000000000000000e+00  0.0000000000000000e+00 0.0000000000000000e+00 0.0000000000000000e+00  0.0000000000000000e+00 0.0000000000000000e+00 0.0000000000000000e+00  0.0000000000000000e+00 0.0000000000000000e+00 0.0000000000000000e+00  0.0000000000000000e+00 0.0000000000000000e+00 0.0000000000000000e+00  0.0000000000000000e+00 0.0000000000000000e+00 0.0000000000000000e+00  0.0000000000000000e+00 0.0000000000000000e+00 0.0000000000000000e+00  0.0000000000000000e+00 0.0000000000000000e+00 0.0000000000000000e+00  -2.7458200076194453e-05 -2.7248667022771273e-05 0.0000000000000000e+00  -4.6275393546921275e-05 -5.2917039945491517e-05 0.0000000000000000e+00  -6.0106420184734009e-05 -8.3446937988722528e-05 0.0000000000000000e+00  -6.9824390633910663e-05 -1.1758889286903358e-04 0.0000000000000000e+00  -7.5911448698020984e-05 -1.5461880029568508e-04 0.0000000000000000e+00  -7.8845062840390357e-05 -1.9396498085676379e-04 0.0000000000000000e+00  -7.8980373816525687e-05 -2.3484764153300293e-04 0.0000000000000000e+00  -7.6876297501878114e-05 -2.7723168774709199e-04 0.0000000000000000e+00  -7.2690287703237736e-05 -3.2056234859794336e-04 0.0000000000000000e+00  -6.6856158999990093e-05 -3.6458163509383006e-04 0.0000000000000000e+00  -5.9671260715856847e-05 -4.0967395714225900e-04 0.0000000000000000e+00  -5.1281128122048147e-05 -4.5540075368416289e-04 0.0000000000000000e+00  -4.1830392165818636e-05 -5.0217688643514773e-04 0.0000000000000000e+00  -3.1334286010322219e-05 -5.4994110248401224e-04 0.0000000000000000e+00  -1.9961971865131944e-05 -5.9870253249117464e-04 0.0000000000000000e+00  -7.7078856588307375e-06 -6.4865460995236848e-04 0.0000000000000000e+00  5.3642017220997580e-06 -6.9949804616580306e-04 0.0000000000000000e+00  1.9257387460420958e-05 -7.5137412555262046e-04 0.0000000000000000e+00  3.3936107228657040e-05 -8.0433892648546640e-04 0.0000000000000000e+00  4.9461508251059904e-05 -8.5835226216399022e-04 0.0000000000000000e+00  6.5750684426934926e-05 -9.1329027378594116e-04 0.0000000000000000e+00  8.2796777350899984e-05 -9.6900186180782632e-04 0.0000000000000000e+00  1.0045008087692976e-04 -1.0258463473263580e-03 0.0000000000000000e+00  1.1862337502099350e-04 -1.0835425205008632e-03 0.0000000000000000e+00  1.3756599753706269e-04 -1.1422530864953161e-03 0.0000000000000000e+00  1.5704442453590603e-04 -1.2019386830884045e-03 0.0000000000000000e+00  1.7696274013452142e-04 -1.2625117679045379e-03 0.0000000000000000e+00  1.9733422890535831e-04 -1.3241144555762958e-03 0.0000000000000000e+00  2.1812967069314508e-04 -1.3867885696424542e-03 0.0000000000000000e+00  2.3931067099000218e-04 -1.4506157198673204e-03 0.0000000000000000e+00  2.6090951094520133e-04 -1.5156603375024976e-03 0.0000000000000000e+00  2.8297366037098468e-04 -1.5819121707436798e-03 0.0000000000000000e+00  3.0552130049026218e-04 -1.6492811558699958e-03 0.0000000000000000e+00  3.2864491082619485e-04 -1.7178068117211266e-03 0.0000000000000000e+00  3.5247327705161598e-04 -1.7873590066312933e-03 0.0000000000000000e+00  3.7712012247011266e-04 -1.8577049011384520e-03 0.0000000000000000e+00  4.0266770413368202e-04 -1.9284683113155524e-03 0.0000000000000000e+00  4.2905367503548605e-04 -1.9992350092274593e-03 0.0000000000000000e+00  4.5626250558882724e-04 -2.0698300972201455e-03 0.0000000000000000e+00  4.8424931817927000e-04 -2.1399051910360135e-03 0.0000000000000000e+00  5.1290938446257254e-04 -2.2092145853931694e-03 0.0000000000000000e+00  5.4216975678726752e-04 -2.2775582411545927e-03 0.0000000000000000e+00  5.7202423757711962e-04 -2.3447817951846653e-03 0.0000000000000000e+00  6.0247886890472610e-04 -2.4106562984516169e-03 0.0000000000000000e+00  6.3349823354039419e-04 -2.4748944386225671e-03 0.0000000000000000e+00  6.6511085441810095e-04 -2.5374090593404328e-03 0.0000000000000000e+00  6.9739964075086016e-04 -2.5978571794814439e-03 0.0000000000000000e+00  7.3029125870118948e-04 -2.6558983258664392e-03 0.0000000000000000e+00  7.6367048693733728e-04 -2.7111791700407816e-03 0.0000000000000000e+00  7.9739307186058636e-04 -2.7635004889035399e-03 0.0000000000000000e+00  8.3125696942059821e-04 -2.8125581786878889e-03 0.0000000000000000e+00  8.6491265807356430e-04 -2.8582970863892053e-03 0.0000000000000000e+00  8.9823693382795502e-04 -2.9009868791067491e-03 0.0000000000000000e+00  9.3100675314034811e-04 -2.9408520069188239e-03 0.0000000000000000e+00  9.6314481424152282e-04 -2.9782146041639279e-03 0.0000000000000000e+00  9.9452347209580644e-04 -3.0133426390297783e-03 0.0000000000000000e+00  1.0251340048096358e-03 -3.0464721505878180e-03 0.0000000000000000e+00  1.0549642516519920e-03 -3.0781583882580447e-03 0.0000000000000000e+00  1.0840681872802888e-03 -3.1089500542855297e-03 0.0000000000000000e+00  1.1125699462168192e-03 -3.1387484684030653e-03 0.0000000000000000e+00  1.1404746439720901e-03 -3.1679478170299371e-03 0.0000000000000000e+00  1.1677550935349165e-03 -3.1968572798618802e-03 0.0000000000000000e+00  1.1945493158512382e-03 -3.2255959948838129e-03 0.0000000000000000e+00  1.2208182809156770e-03 -3.2541699763948564e-03 0.0000000000000000e+00  1.2465758431591031e-03 -3.2828726037909166e-03 0.0000000000000000e+00  1.2719031944580779e-03 -3.3119009027366012e-03 0.0000000000000000e+00  1.2968319653714254e-03 -3.3414101279241877e-03 0.0000000000000000e+00  1.3213820637782087e-03 -3.3715371989523901e-03 0.0000000000000000e+00  1.3456010890485804e-03 -3.4024368197782110e-03 0.0000000000000000e+00  1.3695399827768299e-03 -3.4341849425602862e-03 0.0000000000000000e+00  1.3931534640914621e-03 -3.4668181601204733e-03 0.0000000000000000e+00  1.4164691623713159e-03 -3.5005862536888182e-03 0.0000000000000000e+00  1.4395345890722297e-03 -3.5356129328431626e-03 0.0000000000000000e+00  1.4623594170736977e-03 -3.5719974149297971e-03 0.0000000000000000e+00  1.4849723150184813e-03 -3.6098504590163193e-03 0.0000000000000000e+00  1.5074507778470257e-03 -3.6492947364327425e-03 0.0000000000000000e+00  1.5298875273968009e-03 -3.6902068904926264e-03 0.0000000000000000e+00  1.5522075042993077e-03 -3.7326482303935192e-03 0.0000000000000000e+00  1.5744528940320589e-03 -3.7767662728919694e-03 0.0000000000000000e+00  1.5966226851106590e-03 -3.8225991706417727e-03 0.0000000000000000e+00  1.6187154857744759e-03 -3.8701901489250710e-03 0.0000000000000000e+00  1.6407263607815185e-03 -3.9195502118614580e-03 0.0000000000000000e+00  1.6626116719644863e-03 -3.9706881069758639e-03 0.0000000000000000e+00  1.6843459925637236e-03 -4.0239260582330110e-03 0.0000000000000000e+00  1.7061023185302574e-03 -4.0794701935597160e-03 0.0000000000000000e+00  1.7280579751845291e-03 -4.1371479180710765e-03 0.0000000000000000e+00  1.7504229988891699e-03 -4.1970921375757038e-03 0.0000000000000000e+00  1.7735720079506718e-03 -4.2591967706176676e-03 0.0000000000000000e+00  1.7980382761228057e-03 -4.3229195933987517e-03 0.0000000000000000e+00  1.8243402742196260e-03 -4.3871948814255017e-03 0.0000000000000000e+00  1.8529843986828999e-03 -4.4509021320310958e-03 0.0000000000000000e+00  1.8848655208417594e-03 -4.5121962061411862e-03 0.0000000000000000e+00  1.9207174824380127e-03 -4.5680326820261453e-03 0.0000000000000000e+00  1.9602781078436799e-03 -4.6170279946273303e-03 0.0000000000000000e+00  2.0010624485348369e-03 -4.6541128884374653e-03 0.0000000000000000e+00  2.0445949521518468e-03 -4.6774027763520310e-03 0.0000000000000000e+00  2.0870470398721775e-03 -4.6879127278058172e-03 0.0000000000000000e+00  2.1263395830470218e-03 -4.6865269238741646e-03 0.0000000000000000e+00  2.1630416694097499e-03 -4.6771070975183959e-03 0.0000000000000000e+00  2.1979718731946381e-03 -4.6599918589936944e-03 0.0000000000000000e+00  2.2320018234946565e-03 -4.6373066807135800e-03 0.0000000000000000e+00  2.2654545281969819e-03 -4.6059275200859544e-03 0.0000000000000000e+00  2.3017896274332818e-03 -4.5633616479860313e-03 0.0000000000000000e+00  2.3378238794816365e-03 -4.5077982577267865e-03 0.0000000000000000e+00  2.3726031020071541e-03 -4.4386908147573262e-03 0.0000000000000000e+00  2.4058203170849997e-03 -4.3577774647341133e-03 0.0000000000000000e+00  2.4367675016652751e-03 -4.2666259708814208e-03 0.0000000000000000e+00  2.4656175881187215e-03 -4.1668485489481221e-03 0.0000000000000000e+00  2.4917665361145497e-03 -4.0601564001260812e-03 0.0000000000000000e+00  2.5156038277226768e-03 -3.9484272176316341e-03 0.0000000000000000e+00  2.5371268412819918e-03 -3.8345308933196509e-03 0.0000000000000000e+00  2.5563100664544006e-03 -3.7186519312270988e-03 0.0000000000000000e+00  2.5735379833506803e-03 -3.6022802369570579e-03 0.0000000000000000e+00  2.5891303941115518e-03 -3.4863894945179755e-03 0.0000000000000000e+00  2.6031199835138954e-03 -3.3719875105486462e-03 0.0000000000000000e+00  2.6158104676188734e-03 -3.2602153152622724e-03 0.0000000000000000e+00  2.6272644803200956e-03 -3.1514706416694181e-03 0.0000000000000000e+00  2.6374105709348430e-03 -3.0469240810152031e-03 0.0000000000000000e+00  2.6467672964106087e-03 -2.9470451447912820e-03 0.0000000000000000e+00  2.6544945256141671e-03 -2.8525942461061883e-03 0.0000000000000000e+00  2.6617191594286971e-03 -2.7637881612930836e-03 0.0000000000000000e+00  2.6669127543751344e-03 -2.6811886250283235e-03 0.0000000000000000e+00  2.6711348414827909e-03 -2.6057373458729821e-03 0.0000000000000000e+00  2.6747213408589241e-03 -2.5376295540629349e-03 0.0000000000000000e+00  2.6780544481557842e-03 -2.4764453554120512e-03 0.0000000000000000e+00  2.6814382880675463e-03 -2.4229672807694063e-03 0.0000000000000000e+00  2.6853606577084705e-03 -2.3759057000346767e-03 0.0000000000000000e+00  2.6896791091477312e-03 -2.3347904386023682e-03 0.0000000000000000e+00  2.6947205088196711e-03 -2.2995623666239419e-03 0.0000000000000000e+00  2.7005213246312234e-03 -2.2689248007222804e-03 0.0000000000000000e+00  2.7071202069671486e-03 -2.2421340355043536e-03 0.0000000000000000e+00  2.7142980923401056e-03 -2.2183297546077858e-03 0.0000000000000000e+00  2.7220248437731694e-03 -2.1969506196607177e-03 0.0000000000000000e+00  2.7301918193360039e-03 -2.1774438412813920e-03 0.0000000000000000e+00  2.7387514542248689e-03 -2.1590855409361668e-03 0.0000000000000000e+00  2.7476118978057343e-03 -2.1414568293064724e-03 0.0000000000000000e+00  2.7565200734521187e-03 -2.1243275151299826e-03 0.0000000000000000e+00  2.7654923192744038e-03 -2.1074631538485558e-03 0.0000000000000000e+00  2.7742796031799901e-03 -2.0910201868203876e-03 0.0000000000000000e+00  2.7828578362296386e-03 -2.0752145807340196e-03 0.0000000000000000e+00  2.7911870974882845e-03 -2.0602263536202195e-03 0.0000000000000000e+00  2.7993912429870849e-03 -2.0462731979532162e-03 0.0000000000000000e+00  2.8074035921787119e-03 -2.0333527310810603e-03 0.0000000000000000e+00  2.8150271082842812e-03 -2.0213210512337611e-03 0.0000000000000000e+00  2.8224276444426865e-03 -2.0107772056463299e-03 0.0000000000000000e+00  2.8293180671958820e-03 -2.0025254351466494e-03 0.0000000000000000e+00  2.8358251558729670e-03 -1.9966991233891429e-03 0.0000000000000000e+00  2.8420208611448384e-03 -1.9934971707277183e-03 0.0000000000000000e+00  2.8477899475650142e-03 -1.9932495794982583e-03 0.0000000000000000e+00  2.8531865050422009e-03 -1.9964357648424836e-03 0.0000000000000000e+00  2.8582774983810610e-03 -2.0032716722743552e-03 0.0000000000000000e+00  2.8630414763406954e-03 -2.0140097036410935e-03 0.0000000000000000e+00  2.8675163011303668e-03 -2.0287998429348282e-03 0.0000000000000000e+00  2.8716407738583125e-03 -2.0478247065897973e-03 0.0000000000000000e+00  2.8755160846396172e-03 -2.0717687583557314e-03 0.0000000000000000e+00  2.8793602375752820e-03 -2.1004090076650653e-03 0.0000000000000000e+00  2.8831138577616378e-03 -2.1337580704235935e-03 0.0000000000000000e+00  2.8869490567441981e-03 -2.1717116355180733e-03 0.0000000000000000e+00  2.8906665140895436e-03 -2.2139995716137606e-03 0.0000000000000000e+00  2.8943978104766384e-03 -2.2608269613053067e-03 0.0000000000000000e+00  2.8981989726940779e-03 -2.3117271781789048e-03 0.0000000000000000e+00  2.9020427749180868e-03 -2.3667600252827306e-03 0.0000000000000000e+00  2.9061269137408744e-03 -2.4254842667935997e-03 0.0000000000000000e+00  2.9105226507693802e-03 -2.4878107128525565e-03 0.0000000000000000e+00  2.9152985455325360e-03 -2.5523356381857245e-03 0.0000000000000000e+00  2.9205939999146593e-03 -2.6183820852258908e-03 0.0000000000000000e+00  2.9265329889471108e-03 -2.6858067554734596e-03 0.0000000000000000e+00  2.9338230799708224e-03 -2.7521549324943180e-03 0.0000000000000000e+00  2.9459624989278581e-03 -2.8106877094850190e-03 0.0000000000000000e+00  3.0616713800365840e-03 -2.7861577946278857e-03 0.0000000000000000e+00  3.0878075764296142e-03 -2.6988806699484820e-03 0.0000000000000000e+00  3.0976854898752877e-03 -2.6026084236363679e-03 0.0000000000000000e+00  3.1038147740879763e-03 -2.5071915847816287e-03 0.0000000000000000e+00  3.1136933040293736e-03 -2.4098409278136977e-03 0.0000000000000000e+00  3.1233338643749911e-03 -2.3146867761805910e-03 0.0000000000000000e+00  3.1310299115973285e-03 -2.2222879525387170e-03 0.0000000000000000e+00  3.1373454310149175e-03 -2.1313060589983474e-03 0.0000000000000000e+00  3.1394073780809414e-03 -2.0407425689757575e-03 0.0000000000000000e+00  3.1368666708261879e-03 -1.9559205700042342e-03 0.0000000000000000e+00  3.1307664502044107e-03 -1.8778859398557025e-03 0.0000000000000000e+00  3.1201610512428053e-03 -1.8057007765835407e-03 0.0000000000000000e+00  3.1036391710600091e-03 -1.7394456705831873e-03 0.0000000000000000e+00  3.0813021716815749e-03 -1.6809535874317833e-03 0.0000000000000000e+00  3.0537225838623296e-03 -1.6317584343425783e-03 0.0000000000000000e+00  3.0212347329364561e-03 -1.5923229920500332e-03 0.0000000000000000e+00  2.9842488750294947e-03 -1.5629754431257447e-03 0.0000000000000000e+00  2.9428479277423280e-03 -1.5439726444774825e-03 0.0000000000000000e+00  2.8965419331698767e-03 -1.5353534480002846e-03 0.0000000000000000e+00  2.8447130761778054e-03 -1.5391761347833700e-03 0.0000000000000000e+00  2.7878988637127884e-03 -1.5566674054473960e-03 0.0000000000000000e+00  2.7267080539182262e-03 -1.5896871095627098e-03 0.0000000000000000e+00  2.6626589998219557e-03 -1.6402023467883462e-03 0.0000000000000000e+00  2.5987962370610019e-03 -1.7090657041590998e-03 0.0000000000000000e+00  2.5372558068441384e-03 -1.7969417139930138e-03 0.0000000000000000e+00  2.4831914807240518e-03 -1.9012125625055521e-03 0.0000000000000000e+00  2.4354024399801948e-03 -2.0222196484587398e-03 0.0000000000000000e+00  2.3992627852795338e-03 -2.1526418538719877e-03 0.0000000000000000e+00  2.3792312410780172e-03 -2.2921627012696746e-03 0.0000000000000000e+00  2.3792627766046808e-03 -2.4099243883501380e-03 0.0000000000000000e+00  2.4842698789298732e-03 -2.5213361960709606e-03 0.0000000000000000e+00  2.5753552371572167e-03 -2.5191289408104745e-03 0.0000000000000000e+00  2.6597622757696684e-03 -2.5191878836651493e-03 0.0000000000000000e+00  2.7437712032530861e-03 -2.5192923618009566e-03 0.0000000000000000e+00  2.8280324101032412e-03 -2.5194771022690990e-03 0.0000000000000000e+00  2.9129121891958505e-03 -2.5208698245232967e-03 0.0000000000000000e+00  3.0439601851366721e-03 -2.5229116336305613e-03 0