<?xml version="1.0"?>
<VTKFile type="UnstructuredGrid"  version="0.1"  >
<UnstructuredGrid>
<Piece  NumberOfPoints="16065" NumberOfCells="31592">
<Points>
<DataArray  type="Float64"  NumberOfComponents="3"  format="ascii">0 0.3333333333333333 0  0 0 0  1 0 0  1 0.05555555555555555 0  1 0.1333333333333333 0  0.9333333333333333 0.1333333333333333 0  0.9333333333333333 0.2 0  1 0.2 0  1 0.3333333333333333 0  0 0.3283582089552355 0  0 0.3233830845771466 0  0 0.3184079601990478 0  0 0.3134328358209529 0  0 0.3084577114428612 0  0 0.3034825870647574 0  0 0.2985074626866487 0  0 0.2935323383085401 0  0 0.2885572139304335 0  0 0.2835820895523445 0  0 0.2786069651742469 0  0 0.2736318407961489 0  0 0.2686567164180402 0  0 0.2636815920399506 0  0 0.2587064676618518 0  0 0.2537313432837577 0  0 0.2487562189056677 0  0 0.2437810945275751 0  0 0.2388059701494822 0  0 0.233830845771385 0  0 0.228855721393291 0  0 0.2238805970151982 0  0 0.2189054726370999 0  0 0.213930348259007 0  0 0.2089552238809128 0  0 0.2039800995028158 0  0 0.199004975124723 0  0 0.1940298507466273 0  0 0.1890547263685318 0  0 0.1840796019904389 0  0 0.1791044776123418 0  0 0.1741293532342478 0  0 0.1691542288561549 0  0 0.1641791044780463 0  0 0.1592039800999219 0  0 0.1542288557217986 0  0 0.1492537313436784 0  0 0.144278606965554 0  0 0.1393034825874322 0  0 0.1343283582093106 0  0 0.1293532338311862 0  0 0.1243781094530658 0  0 0.1194029850749427 0  0 0.1144278606968183 0  0 0.1094527363186993 0  0 0.1044776119405749 0  0 0.09950248756245161 0  0 0.09452736318433147 0  0 0.08955223880620702 0  0 0.08457711442808519 0  0 0.07960199004996127 0  0 0.07462686567183563 0  0 0.06965174129371338 0  0 0.0646766169155949 0  0 0.05970149253746632 0  0 0.05472636815934701 0  0 0.04975124378122736 0  0 0.04477611940309911 0  0 0.03980099502498063 0  0 0.03482587064685805 0  0 0.02985074626873274 0  0 0.02487562189061426 0  0 0.01990049751248874 0  0 0.01492537313436632 0  0 0.009950248756247781 0  0 0.004975124378119478 0  0.00499999999999053 0 0  0.009999999999981104 0 0  0.01499999999997174 0 0  0.01999999999996237 0 0  0.02499999999995287 0 0  0.02999999999994307 0 0  0.03499999999993262 0 0  0.03999999999992186 0 0  0.04499999999991076 0 0  0.04999999999989966 0 0  0.05499999999988862 0 0  0.05999999999987837 0 0  0.06499999999986901 0 0  0.06999999999986051 0 0  0.07499999999985282 0 0  0.07999999999984518 0 0  0.08499999999983754 0 0  0.0899999999998299 0 0  0.09499999999982227 0 0  0.09999999999981463 0 0  0.104999999999807 0 0  0.1099999999997994 0 0  0.1149999999997918 0 0  0.1199999999997832 0 0  0.1249999999997738 0 0  0.1299999999997609 0 0  0.1349999999997473 0 0  0.1399999999997328 0 0  0.1449999999997182 0 0  0.1499999999997036 0 0  0.1549999999996891 0 0  0.1599999999996745 0 0  0.1649999999996599 0 0  0.1699999999996453 0 0  0.1749999999996308 0 0  0.1799999999996162 0 0  0.1849999999996016 0 0  0.189999999999587 0 0  0.1949999999995725 0 0  0.1999999999995579 0 0  0.2049999999995433 0 0  0.2099999999995288 0 0  0.2149999999995142 0 0  0.2199999999994996 0 0  0.224999999999485 0 0  0.2299999999994704 0 0  0.2349999999994558 0 0  0.2399999999994413 0 0  0.2449999999994267 0 0  0.2499999999994121 0 0  0.2549999999993976 0 0  0.259999999999383 0 0  0.2649999999993684 0 0  0.2699999999993538 0 0  0.2749999999993393 0 0  0.2799999999993247 0 0  0.2849999999993101 0 0  0.2899999999992955 0 0  0.2949999999992809 0 0  0.2999999999992664 0 0  0.3049999999992518 0 0  0.3099999999992372 0 0  0.3149999999992227 0 0  0.3199999999992081 0 0  0.3249999999991935 0 0  0.329999999999179 0 0  0.3349999999991644 0 0  0.3399999999991498 0 0  0.3449999999991352 0 0  0.3499999999991207 0 0  0.3549999999991061 0 0  0.3599999999990915 0 0  0.364999999999077 0 0  0.3699999999990624 0 0  0.3749999999990478 0 0  0.3799999999990332 0 0  0.3849999999990187 0 0  0.3899999999990041 0 0  0.3949999999989895 0 0  0.3999999999989749 0 0  0.4049999999989604 0 0  0.4099999999989458 0 0  0.4149999999989312 0 0  0.4199999999989167 0 0  0.4249999999989021 0 0  0.4299999999988875 0 0  0.4349999999988729 0 0  0.4399999999988584 0 0  0.4449999999988438 0 0  0.4499999999988292 0 0  0.4549999999988146 0 0  0.4599999999988 0 0  0.4649999999987854 0 0  0.4699999999987708 0 0  0.4749999999987564 0 0  0.4799999999987418 0 0  0.4849999999987272 0 0  0.4899999999987126 0 0  0.4949999999987019 0 0  0.4999999999986943 0 0  0.5049999999987005 0 0  0.5099999999987098 0 0  0.514999999998723 0 0  0.5199999999987361 0 0  0.5249999999987494 0 0  0.5299999999987626 0 0  0.5349999999987757 0 0  0.5399999999987888 0 0  0.544999999998802 0 0  0.5499999999988152 0 0  0.5549999999988283 0 0  0.5599999999988415 0 0  0.5649999999988546 0 0  0.5699999999988679 0 0  0.574999999998881 0 0  0.5799999999988942 0 0  0.5849999999989073 0 0  0.5899999999989205 0 0  0.5949999999989336 0 0  0.5999999999989468 0 0  0.6049999999989599 0 0  0.6099999999989731 0 0  0.6149999999989864 0 0  0.6199999999989995 0 0  0.6249999999990127 0 0  0.6299999999990258 0 0  0.634999999999039 0 0  0.6399999999990521 0 0  0.6449999999990653 0 0  0.6499999999990784 0 0  0.6549999999990916 0 0  0.6599999999991049 0 0  0.664999999999118 0 0  0.6699999999991312 0 0  0.6749999999991442 0 0  0.6799999999991574 0 0  0.6849999999991706 0 0  0.6899999999991837 0 0  0.6949999999991969 0 0  0.6999999999992101 0 0  0.7049999999992232 0 0  0.7099999999992365 0 0  0.7149999999992497 0 0  0.7199999999992628 0 0  0.724999999999276 0 0  0.7299999999992892 0 0  0.7349999999993022 0 0  0.7399999999993154 0 0  0.7449999999993285 0 0  0.7499999999993417 0 0  0.754999999999355 0 0  0.7599999999993681 0 0  0.7649999999993813 0 0  0.7699999999993945 0 0  0.7749999999994075 0 0  0.7799999999994207 0 0  0.7849999999994339 0 0  0.789999999999447 0 0  0.7949999999994602 0 0  0.7999999999994734 0 0  0.8049999999994866 0 0  0.8099999999994998 0 0  0.8149999999995129 0 0  0.8199999999995261 0 0  0.8249999999995393 0 0  0.8299999999995523 0 0  0.8349999999995655 0 0  0.8399999999995788 0 0  0.8449999999995919 0 0  0.8499999999996051 0 0  0.8549999999996183 0 0  0.8599999999996314 0 0  0.8649999999996446 0 0  0.8699999999996577 0 0  0.8749999999996709 0 0  0.8799999999996841 0 0  0.8849999999996971 0 0  0.8899999999997104 0 0  0.8949999999997236 0 0  0.8999999999997367 0 0  0.9049999999997499 0 0  0.9099999999997631 0 0  0.9149999999997762 0 0  0.9199999999997894 0 0  0.9249999999998026 0 0  0.9299999999998156 0 0  0.9349999999998289 0 0  0.939999999999842 0 0  0.9449999999998552 0 0  0.9499999999998684 0 0  0.9549999999998815 0 0  0.9599999999998947 0 0  0.9649999999999079 0 0  0.969999999999921 0 0  0.9749999999999343 0 0  0.9799999999999475 0 0  0.9849999999999605 0 0  0.9899999999999737 0 0  0.9949999999999868 0 0  1 0.004629629629621038 0  1 0.009259259259238989 0  1 0.01388888888885587 0  1 0.0185185185184723 0  1 0.02314814814808873 0  1 0.02777777777770583 0  1 0.03240740740734689 0  1 0.0370370370369886 0  1 0.04166666666663033 0  1 0.04629629629627208 0  1 0.05092592592591381 0  1 0.06041666666665547 0  1 0.0652777777777554 0  1 0.07013888888885125 0  1 0.07499999999994983 0  1 0.07986111111104839 0  1 0.08472222222214695 0  1 0.08958333333323469 0  1 0.09444444444433597 0  1 0.09930555555545895 0  1 0.1041666666665819 0  1 0.1090277777777076 0  1 0.1138888888888306 0  1 0.118749999999959 0  1 0.1236111111110847 0  1 0.1284722222222077 0  0.995238095238089 0.1333333333333333 0  0.9904761904761719 0.1333333333333333 0  0.9857142857142888 0.1333333333333333 0  0.9809523809523778 0.1333333333333333 0  0.9761904761904948 0.1333333333333333 0  0.9714285714286179 0.1333333333333333 0  0.9666666666667534 0.1333333333333333 0  0.9619047619048208 0.1333333333333333 0  0.9571428571429254 0.1333333333333333 0  0.9523809523809988 0.1333333333333333 0  0.9476190476190879 0.1333333333333333 0  0.9428571428571615 0.1333333333333333 0  0.9380952380952443 0.1333333333333333 0  0.9333333333333333 0.1380952380952311 0  0.9333333333333333 0.1428571428571127 0  0.9333333333333333 0.1476190476190166 0  0.9333333333333333 0.1523809523809082 0  0.9333333333333333 0.1571428571427805 0  0.9333333333333333 0.1619047619046937 0  0.9333333333333333 0.1666666666665745 0  0.9333333333333333 0.1714285714284932 0  0.9333333333333333 0.1761904761904134 0  0.9333333333333333 0.1809523809523275 0  0.9333333333333333 0.185714285714247 0  0.9333333333333333 0.1904761904761665 0  0.9333333333333333 0.1952380952380805 0  0.9380952380952443 0.2 0  0.9428571428571615 0.2 0  0.9476190476190446 0.2 0  0.9523809523809555 0.2 0  0.9571428571428385 0.2 0  0.9619047619047154 0.2 0  0.96666666666658 0.2 0  0.9714285714285126 0.2 0  0.976190476190408 0.2 0  0.9809523809523345 0.2 0  0.9857142857142455 0.2 0  0.9904761904761719 0.2 0  0.995238095238089 0.2 0  1 0.2049382716049228 0  1 0.2098765432098617 0  1 0.2148148148147805 0  1 0.2197530864197075 0  1 0.2246913580246271 0  1 0.2296296296295531 0  1 0.2345679012344705 0  1 0.2395061728393821 0  1 0.244444444444336 0  1 0.2493827160492443 0  1 0.2543209876541471 0  1 0.259259259259105 0  1 0.2641975308640344 0  1 0.2691358024689626 0  1 0.2740740740739138 0  1 0.2790123456788717 0  1 0.2839506172838188 0  1 0.288888888888766 0  1 0.2938271604937239 0  1 0.298765432098671 0  1 0.3037037037036181 0  1 0.3086419753085761 0  1 0.313580246913534 0  1 0.3185185185184727 0  1 0.3234567901234283 0  1 0.3283950617283834 0  0.9949999999999791 0.3333333333333333 0  0.9899999999999584 0.3333333333333333 0  0.9849999999999375 0.3333333333333333 0  0.9799999999999167 0.3333333333333333 0  0.9749999999998958 0.3333333333333333 0  0.9699999999998751 0.3333333333333333 0  0.9649999999998542 0.3333333333333333 0  0.9599999999998334 0.3333333333333333 0  0.9549999999998126 0.3333333333333333 0  0.9499999999997918 0.3333333333333333 0  0.9449999999997709 0.3333333333333333 0  0.9399999999997501 0.3333333333333333 0  0.9349999999997293 0.3333333333333333 0  0.9299999999997085 0.3
[...]
<PointData  Vectors="Displacement"> 
<DataArray  type="Float64"  Name="Displacement"  NumberOfComponents="3" format="ascii">0.0000000000000000e+00 0.0000000000000000e+00 0.0000000000000000e+00  0.0000000000000000e+00 0.0000000000000000e+00 0.0000000000000000e+00  2.3878985358002686e-03 -2.5291445476735403e-03 0.0000000000000000e+00  3.6802531293795614e-03 -2.4445147887594541e-03 0.0000000000000000e+00  5.1709921727562799e-03 -1.4675579183970396e-03 0.0000000000000000e+00  4.8133396389520074e-03 -4.8137619350089965e-04 0.0000000000000000e+00  5.5390406943935265e-03 -1.6291126735543606e-04 0.0000000000000000e+00  5.8256559209669372e-03 -1.1615525080003004e-03 0.0000000000000000e+00  6.6380176983168908e-03 -8.9819334168218530e-04 0.0000000000000000e+00  0.0000000000000000e+00 0.0000000000000000e+00 0.0000000000000000e+00  0.0000000000000000e+00 0.0000000000000000e+00 0.0000000000000000e+00  0.0000000000000000e+00 0.0000000000000000e+00 0.0000000000000000e+00  0.0000000000000000e+00 0.0000000000000000e+00 0.0000000000000000e+00  0.0000000000000000e+00 0.0000000000000000e+00 0.0000000000000000e+00  0.0000000000000000e+00 0.0000000000000000e+00 0.0000000000000000e+00  0.0000000000000000e+00 0.0000000000000000e+00 0.0000000000000000e+00  0.0000000000000000e+00 0.0000000000000000e+00 0.0000000000000000e+00  0.0000000000000000e+00 0.0000000000000000e+00 0.0000000000000000e+00  0.0000000000000000e+00 0.0000000000000000e+00 0.0000000000000000e+00  0.0000000000000000e+00 0.0000000000000000e+00 0.0000000000000000e+00  0.0000000000000000e+00 0.0000000000000000e+00 0.0000000000000000e+00  0.0000000000000000e+00 0.0000000000000000e+00 0.0000000000000000e+00  0.0000000000000000e+00 0.0000000000000000e+00 0.0000000000000000e+00  0.0000000000000000e+00 0.0000000000000000e+00 0.0000000000000000e+00  0.0000000000000000e+00 0.0000000000000000e+00 0.0000000000000000e+00  0.0000000000000000e+00 0.0000000000000000e+00 0.0000000000000000e+00  0.0000000000000000e+00 0.0000000000000000e+00 0.0000000000000000e+00  0.0000000000000000e+00 0.0000000000000000e+00 0.0000000000000000e+00  0.0000000000000000e+00 0.0000000000000000e+00 0.0000000000000000e+00  0.0000000000000000e+00 0.0000000000000000e+00 0.0000000000000000e+00  0.0000000000000000e+00 0.0000000000000000e+00 0.0000000000000000e+00  0.0000000000000000e+00 0.0000000000000000e+00 0.0000000000000000e+00  0.0000000000000000e+00 0.0000000000000000e+00 0.0000000000000000e+00  0.0000000000000000e+00 0.0000000000000000e+00 0.0000000000000000e+00  0.0000000000000000e+00 0.0000000000000000e+00 0.0000000000000000e+00  0.0000000000000000e+00 0.0000000000000000e+00 0.0000000000000000e+00  0.0000000000000000e+00 0.0000000000000000e+00 0.0000000000000000e+00  0.0000000000000000e+00 0.0000000000000000e+00 0.0000000000000000e+00  0.0000000000000000e+00 0.0000000000000000e+00 0.0000000000000000e+00  0.0000000000000000e+00 0.0000000000000000e+00 0.0000000000000000e+00  0.0000000000000000e+00 0.0000000000000000e+00 0.0000000000000000e+00  0.0000000000000000e+00 0.0000000000000000e+00 0.0000000000000000e+00  0.0000000000000000e+00 0.0000000000000000e+00 0.0000000000000000e+00  0.0000000000000000e+00 0.0000000000000000e+00 0.0000000000000000e+00  0.0000000000000000e+00 0.0000000000000000e+00 0.0000000000000000e+00  0.0000000000000000e+00 0.0000000000000000e+00 0.0000000000000000e+00  0.0000000000000000e+00 0.0000000000000000e+00 0.0000000000000000e+00  0.0000000000000000e+00 0.0000000000000000e+00 0.0000000000000000e+00  0.0000000000000000e+00 0.0000000000000000e+00 0.0000000000000000e+00  0.0000000000000000e+00 0.0000000000000000e+00 0.0000000000000000e+00  0.0000000000000000e+00 0.0000000000000000e+00 0.0000000000000000e+00  0.0000000000000000e+00 0.0000000000000000e+00 0.0000000000000000e+00  0.0000000000000000e+00 0.0000000000000000e+00 0.0000000000000000e+00  0.0000000000000000e+00 0.0000000000000000e+00 0.0000000000000000e+00  0.0000000000000000e+00 0.0000000000000000e+00 0.0000000000000000e+00  0.0000000000000000e+00 0.0000000000000000e+00 0.0000000000000000e+00  0.0000000000000000e+00 0.0000000000000000e+00 0.0000000000000000e+00  0.0000000000000000e+00 0.0000000000000000e+00 0.0000000000000000e+00  0.0000000000000000e+00 0.0000000000000000e+00 0.0000000000000000e+00  0.0000000000000000e+00 0.0000000000000000e+00 0.0000000000000000e+00  0.0000000000000000e+00 0.0000000000000000e+00 0.0000000000000000e+00  0.0000000000000000e+00 0.0000000000000000e+00 0.0000000000000000e+00  0.0000000000000000e+00 0.0000000000000000e+00 0.0000000000000000e+00  0.0000000000000000e+00 0.0000000000000000e+00 0.0000000000000000e+00  0.0000000000000000e+00 0.0000000000000000e+00 0.0000000000000000e+00  0.0000000000000000e+00 0.0000000000000000e+00 0.0000000000000000e+00  0.0000000000000000e+00 0.0000000000000000e+00 0.0000000000000000e+00  0.0000000000000000e+00 0.0000000000000000e+00 0.0000000000000000e+00  0.0000000000000000e+00 0.0000000000000000e+00 0.0000000000000000e+00  0.0000000000000000e+00 0.0000000000000000e+00 0.0000000000000000e+00  0.0000000000000000e+00 0.0000000000000000e+00 0.0000000000000000e+00  0.0000000000000000e+00 0.0000000000000000e+00 0.0000000000000000e+00  0.0000000000000000e+00 0.0000000000000000e+00 0.0000000000000000e+00  0.0000000000000000e+00 0.0000000000000000e+00 0.0000000000000000e+00  0.0000000000000000e+00 0.0000000000000000e+00 0.0000000000000000e+00  -2.7571434285518108e-05 -2.7348698312154534e-05 0.0000000000000000e+00  -4.6473507248142307e-05 -5.3109412674520413e-05 0.0000000000000000e+00  -6.0373895025090391e-05 -8.3752430094722553e-05 0.0000000000000000e+00  -7.0147757493029732e-05 -1.1802432109858039e-04 0.0000000000000000e+00  -7.6278221597067997e-05 -1.5519799317856024e-04 0.0000000000000000e+00  -7.9244044714965145e-05 -1.9469892214448315e-04 0.0000000000000000e+00  -7.9401430735725280e-05 -2.3574381099767677e-04 0.0000000000000000e+00  -7.7311354529473791e-05 -2.7829672986325992e-04 0.0000000000000000e+00  -7.3131623274740252e-05 -3.2179977297978554e-04 0.0000000000000000e+00  -6.7297671175395456e-05 -3.6599421724237287e-04 0.0000000000000000e+00  -6.0107868854389361e-05 -4.1126504603008026e-04 0.0000000000000000e+00  -5.1708182440713734e-05 -4.5717207233609951e-04 0.0000000000000000e+00  -4.2244231836919011e-05 -5.0413138265787392e-04 0.0000000000000000e+00  -3.1731074601483057e-05 -5.5208086375015217e-04 0.0000000000000000e+00  -2.0338301228897289e-05 -6.0103004713025208e-04 0.0000000000000000e+00  -8.0600968260193609e-06 -6.5117243987919177e-04 0.0000000000000000e+00  5.0395088435072150e-06 -7.0220773422661467e-04 0.0000000000000000e+00  1.8963686398293426e-05 -7.5427755373072309e-04 0.0000000000000000e+00  3.3676802448091747e-05 -8.0743773340047429e-04 0.0000000000000000e+00  4.9240149809415310e-05 -8.6164779735965757e-04 0.0000000000000000e+00  6.5570548733287457e-05 -9.1678333886685212e-04 0.0000000000000000e+00  8.2661110859186631e-05 -9.7269279755647967e-04 0.0000000000000000e+00  1.0036169837332978e-04 -1.0297362776653341e-03 0.0000000000000000e+00  1.1858473743288621e-04 -1.0876317287147061e-03 0.0000000000000000e+00  1.3758031610888385e-04 -1.1465423160425571e-03 0.0000000000000000e+00  1.5711407438730627e-04 -1.2064282434669355e-03 0.0000000000000000e+00  1.7708984658603975e-04 -1.2672020089131825e-03 0.0000000000000000e+00  1.9752086386103703e-04 -1.3290060526059597e-03 0.0000000000000000e+00  2.1837775021488223e-04 -1.3918823744362755e-03 0.0000000000000000e+00  2.3962189268217292e-04 -1.4559128643064014e-03 0.0000000000000000e+00  2.6128553241574110e-04 -1.5211622717819294e-03 0.0000000000000000e+00  2.8341609319855791e-04 -1.5876204790479689e-03 0.0000000000000000e+00  3.0603161216988760e-04 -1.6551975028051130e-03 0.0000000000000000e+00  3.2922462575600797e-04 -1.7239333696002454e-03 0.0000000000000000e+00  3.5312406326450558e-04 -1.7936981355023700e-03 0.0000000000000000e+00  3.7784386526785969e-04 -1.8642589855165095e-03 0.0000000000000000e+00  4.0346651127442205e-04 -1.9352393665343177e-03 0.0000000000000000e+00  4.2992959384629675e-04 -2.0062245661095117e-03 0.0000000000000000e+00  4.5721770767101700e-04 -2.0770396970039256e-03 0.0000000000000000e+00  4.8528605716071136e-04 -2.1473357957510477e-03 0.0000000000000000e+00  5.1402983328670520e-04 -2.2168666797085048e-03 0.0000000000000000e+00  5.4337603916486735e-04 -2.2854318656806952e-03 0.0000000000000000e+00  5.7331855823367366e-04 -2.3528765675398786e-03 0.0000000000000000e+00  6.0386347647909929e-04 -2.4189711540159317e-03 0.0000000000000000e+00  6.3497520684882385e-04 -2.4834275317147832e-03 0.0000000000000000e+00  6.6668225790728140e-04 -2.5461583076099260e-03 0.0000000000000000e+00  6.9906760480599320e-04 -2.6068197152935850e-03 0.0000000000000000e+00  7.3205759236323760e-04 -2.6650705623122322e-03 0.0000000000000000e+00  7.6553661077069274e-04 -2.7205568999966027e-03 0.0000000000000000e+00  7.9936003819335716e-04 -2.7730792899328103e-03 0.0000000000000000e+00  8.3332538027396314e-04 -2.8223330615034219e-03 0.0000000000000000e+00  8.6708230426586644e-04 -2.8682630911870993e-03 0.0000000000000000e+00  9.0050736652965877e-04 -2.9111398499098019e-03 0.0000000000000000e+00  9.3337708940655474e-04 -2.9511884224730097e-03 0.0000000000000000e+00  9.6561405348100169e-04 -2.9887316895243821e-03 0.0000000000000000e+00  9.9709037375765521e-04 -3.0240381647688797e-03 0.0000000000000000e+00  1.0277972933908988e-03 -3.0573443163058622e-03 0.0000000000000000e+00  1.0577225503800572e-03 -3.0892068538592621e-03 0.0000000000000000e+00  1.0869203337475805e-03 -3.1201757877293390e-03 0.0000000000000000e+00  1.1155150655682389e-03 -3.1501520463630933e-03 0.0000000000000000e+00  1.1435118477051123e-03 -3.1795308109539917e-03 0.0000000000000000e+00  1.1708834559734022e-03 -3.2086220962106583e-03 0.0000000000000000e+00  1.1977683594064888e-03 -3.2375451526556764e-03 0.0000000000000000e+00  1.2241273971765367e-03 -3.2663058621565746e-03 0.0000000000000000e+00  1.2499745046696685e-03 -3.2951983078274680e-03 0.0000000000000000e+00  1.2753911674031179e-03 -3.3244199042350465e-03 0.0000000000000000e+00  1.3004091379671394e-03 -3.3541261314866673e-03 0.0000000000000000e+00  1.3250484092871358e-03 -3.3844541048009564e-03 0.0000000000000000e+00  1.3493567708944938e-03 -3.4155587490040502e-03 0.0000000000000000e+00  1.3733853675069240e-03 -3.4475159358304031e-03 0.0000000000000000e+00  1.3970887464676419e-03 -3.4803620558000827e-03 0.0000000000000000e+00  1.4204946376624723e-03 -3.5143474419760800e-03 0.0000000000000000e+00  1.4436507015062972e-03 -3.5495959093340794e-03 0.0000000000000000e+00  1.4665666159418317e-03 -3.5862067219676573e-03 0.0000000000000000e+00  1.4892711304195642e-03 -3.6242907320524647e-03 0.0000000000000000e+00  1.5118420106772681e-03 -3.6639707581923057e-03 0.0000000000000000e+00  1.5343722914630160e-03 -3.7051226315448654e-03 0.0000000000000000e+00  1.5567865896630362e-03 -3.7478076154253059e-03 0.0000000000000000e+00  1.5791271759057147e-03 -3.7921735287494477e-03 0.0000000000000000e+00  1.6013929378934418e-03 -3.8382584079208189e-03 0.0000000000000000e+00  1.6235823750304090e-03 -3.8861054838423476e-03 0.0000000000000000e+00  1.6456904201928818e-03 -3.9357256117924016e-03 0.0000000000000000e+00  1.6676731537401755e-03 -3.9871274463402053e-03 0.0000000000000000e+00  1.6895049728386370e-03 -4.0406344622202425e-03 0.0000000000000000e+00  1.7113594301881112e-03 -4.0964536629092144e-03 0.0000000000000000e+00  1.7334145536986203e-03 -4.1544116378791872e-03 0.0000000000000000e+00  1.7558812246860768e-03 -4.2146417904173773e-03 0.0000000000000000e+00  1.7791354013175012e-03 -4.2770375563303039e-03 0.0000000000000000e+00  1.8037125589527620e-03 -4.3410545421260268e-03 0.0000000000000000e+00  1.8301332400348261e-03 -4.4056224835027583e-03 0.0000000000000000e+00  1.8589059363863377e-03 -4.4696162329582274e-03 0.0000000000000000e+00  1.8909292368982466e-03 -4.5311829730654190e-03 0.0000000000000000e+00  1.9269401389208597e-03 -4.5872654695132825e-03 0.0000000000000000e+00  1.9666752551966379e-03 -4.6364742884453525e-03 0.0000000000000000e+00  2.0076386019561624e-03 -4.6737188667470850e-03 0.0000000000000000e+00  2.0513614463648975e-03 -4.6971067525865924e-03 0.0000000000000000e+00  2.0939985481951973e-03 -4.7076578890358238e-03 0.0000000000000000e+00  2.1334620406956539e-03 -4.7062605829248927e-03 0.0000000000000000e+00  2.1703235597586600e-03 -4.6967934337508723e-03 0.0000000000000000e+00  2.2054054119144619e-03 -4.6795965725768213e-03 0.0000000000000000e+00  2.2395830935758197e-03 -4.6568044559939618e-03 0.0000000000000000e+00  2.2731809827383968e-03 -4.6252797231370359e-03 0.0000000000000000e+00  2.3096735359714299e-03 -4.5825188917099410e-03 0.0000000000000000e+00  2.3458637159493763e-03 -4.5267033871625372e-03 0.0000000000000000e+00  2.3807931833986734e-03 -4.4572846240782749e-03 0.0000000000000000e+00  2.4141536004649196e-03 -4.3760082808374044e-03 0.0000000000000000e+00  2.4452337813003224e-03 -4.2844492467474134e-03 0.0000000000000000e+00  2.4742075838881505e-03 -4.1842269126932102e-03 0.0000000000000000e+00  2.5004683829287248e-03 -4.0770598234290212e-03 0.0000000000000000e+00  2.5244074347028174e-03 -3.9648336425635016e-03 0.0000000000000000e+00  2.5460219720827614e-03 -3.8504302947690787e-03 0.0000000000000000e+00  2.5652863014436374e-03 -3.7340353986574731e-03 0.0000000000000000e+00  2.5825863944481304e-03 -3.6171453331469133e-03 0.0000000000000000e+00  2.5982432402230629e-03 -3.5007384013794269e-03 0.0000000000000000e+00  2.6122896929169437e-03 -3.3858270393510139e-03 0.0000000000000000e+00  2.6250305137442771e-03 -3.2735573669836035e-03 0.0000000000000000e+00  2.6365286263945152e-03 -3.1643296431185111e-03 0.0000000000000000e+00  2.6467122177252552e-03 -3.0593193200792812e-03 0.0000000000000000e+00  2.6561020063232714e-03 -2.9589987771432838e-03 0.0000000000000000e+00  2.6638544984838959e-03 -2.8641314817865198e-03 0.0000000000000000e+00  2.6711021795984891e-03 -2.7749353932591952e-03 0.0000000000000000e+00  2.6763092949107429e-03 -2.6919745865995291e-03 0.0000000000000000e+00  2.6805408446492610e-03 -2.6161943343433599e-03 0.0000000000000000e+00  2.6841352116728605e-03 -2.5477909683194692e-03 0.0000000000000000e+00  2.6874763348141424e-03 -2.4863415951343741e-03 0.0000000000000000e+00  2.6908689961847661e-03 -2.4326315334644378e-03 0.0000000000000000e+00  2.6948032135094189e-03 -2.3853654137723627e-03 0.0000000000000000e+00  2.6991353818726638e-03 -2.3440706076245073e-03 0.0000000000000000e+00  2.7041939024507358e-03 -2.3086872358640490e-03 0.0000000000000000e+00  2.7100153489247143e-03 -2.2779127543809232e-03 0.0000000000000000e+00  2.7166385425963450e-03 -2.2510000224229510e-03 0.0000000000000000e+00  2.7238434058006458e-03 -2.2270846744822555e-03 0.0000000000000000e+00  2.7315995700543422e-03 -2.2056026335720218e-03 0.0000000000000000e+00  2.7397979046812917e-03 -2.1859985893071224e-03 0.0000000000000000e+00  2.7483905510444864e-03 -2.1675454640072232e-03 0.0000000000000000e+00  2.7572852756374997e-03 -2.1498225147089326e-03 0.0000000000000000e+00  2.7662278638417030e-03 -2.1325983718685280e-03 0.0000000000000000e+00  2.7752346822422043e-03 -2.1156376909516892e-03 0.0000000000000000e+00  2.7840557332729750e-03 -2.0990973757371431e-03 0.0000000000000000e+00  2.7926666679028412e-03 -2.0831943204584523e-03 0.0000000000000000e+00  2.8010275407001875e-03 -2.0681092132369058e-03 0.0000000000000000e+00  2.8092625838865518e-03 -2.0540605053646116e-03 0.0000000000000000e+00  2.8173048464156013e-03 -2.0410459464640577e-03 0.0000000000000000e+00  2.8249564486262616e-03 -2.0289214900865941e-03 0.0000000000000000e+00  2.8323839231021823e-03 -2.0182884929760654e-03 0.0000000000000000e+00  2.8392991219143111e-03 -2.0099540968236450e-03 0.0000000000000000e+00  2.8458292483866557e-03 -2.0040523836688546e-03 0.0000000000000000e+00  2.8520465156293556e-03 -2.0007831193908209e-03 0.0000000000000000e+00  2.8578352995327471e-03 -2.0004775537825559e-03 0.0000000000000000e+00  2.8632498281751799e-03 -2.0036173131809851e-03 0.0000000000000000e+00  2.8683574212174821e-03 -2.0104189768666379e-03 0.0000000000000000e+00  2.8731365333391590e-03 -2.0211360009773443e-03 0.0000000000000000e+00  2.8776251311017956e-03 -2.0359189831818435e-03 0.0000000000000000e+00  2.8817618959221464e-03 -2.0549513776738255e-03 0.0000000000000000e+00  2.8856484448853761e-03 -2.0789205673735480e-03 0.0000000000000000e+00  2.8895037062207939e-03 -2.1076021063034626e-03 0.0000000000000000e+00  2.8932680714183210e-03 -2.1410089968979164e-03 0.0000000000000000e+00  2.8971143877015069e-03 -2.1790359176399438e-03 0.0000000000000000e+00  2.9008423887380425e-03 -2.2214121995482025e-03 0.0000000000000000e+00  2.9045843089426783e-03 -2.2683434891394936e-03 0.0000000000000000e+00  2.9083962701141031e-03 -2.3193608549950291e-03 0.0000000000000000e+00  2.9122509308281619e-03 -2.3745247531360061e-03 0.0000000000000000e+00  2.9163466969584296e-03 -2.4333924726459700e-03 0.0000000000000000e+00  2.9207550602451675e-03 -2.4958741391940555e-03 0.0000000000000000e+00  2.9255449881553596e-03 -2.5605614828305466e-03 0.0000000000000000e+00  2.9308559686764633e-03 -2.6267752083495096e-03 0.0000000000000000e+00  2.9368126644287204e-03 -2.6943717095107012e-03 0.0000000000000000e+00  2.9441257459646903e-03 -2.7608871520767384e-03 0.0000000000000000e+00  2.9563054803490459e-03 -2.8195572643109610e-03 0.0000000000000000e+00  3.0724175652243647e-03 -2.7948727293067130e-03 0.0000000000000000e+00  3.0986426705101374e-03 -2.7072157305412636e-03 0.0000000000000000e+00  3.1085524300278541e-03 -2.6105283579176478e-03 0.0000000000000000e+00  3.1147007064826508e-03 -2.5146953283950568e-03 0.0000000000000000e+00  3.1246103248148529e-03 -2.4169182615407518e-03 0.0000000000000000e+00  3.1342805419601570e-03 -2.3213395676503217e-03 0.0000000000000000e+00  3.1419987437187559e-03 -2.2285217084889574e-03 0.0000000000000000e+00  3.1483291751347384e-03 -2.1371234203006162e-03 0.0000000000000000e+00  3.1503919676195815e-03 -2.0461431066699960e-03 0.0000000000000000e+00  3.1478350924477243e-03 -1.9609182374947859e-03 0.0000000000000000e+00  3.1417043174977858e-03 -1.8824993038839704e-03 0.0000000000000000e+00  3.1310516722185462e-03 -1.8099480836364465e-03 0.0000000000000000e+00  3.1144624044905584e-03 -1.7433439608303277e-03 0.0000000000000000e+00  3.0920376797048238e-03 -1.6845253054031493e-03 0.0000000000000000e+00  3.0643515732278978e-03 -1.6350307619256248e-03 0.0000000000000000e+00  3.0317395976362182e-03 -1.5953250826697988e-03 0.0000000000000000e+00  2.9946133916305892e-03 -1.5657386887775330e-03 0.0000000000000000e+00  2.9530561509199457e-03 -1.5465291869847094e-03 0.0000000000000000e+00  2.9065763261699601e-03 -1.5377364902032997e-03 0.0000000000000000e+00  2.8545537875405672e-03 -1.5414258953499267e-03 0.0000000000000000e+00  2.7975278684196523e-03 -1.5588292085127592e-03 0.0000000000000000e+00  2.7361097893638942e-03 -1.5918137622526725e-03 0.0000000000000000e+00  2.6718240002561316e-03 -1.6423539644866054e-03 0.0000000000000000e+00  2.6077263325563435e-03 -1.7113051283758683e-03 0.0000000000000000e+00  2.5459607800390064e-03 -1.7993340297703638e-03 0.0000000000000000e+00  2.4916991662236746e-03 -1.9038132062019332e-03 0.0000000000000000e+00  2.4437372452987571e-03 -2.0250861079981800e-03 0.0000000000000000e+00  2.4074675313308512e-03 -2.1558045579300254e-03 0.0000000000000000e+00  2.3873662390320252e-03 -2.2956503704299447e-03 0.0000000000000000e+00  2.3873977850991297e-03 -2.4136535109248293e-03 0.0000000000000000e+00  2.4926134873405189e-03 -2.5252824572916826e-03 0.0000000000000000e+00  2.5838549073759231e-03 -2.5230652024009195e-03 0.0000000000000000e+00  2.6683873025176072e-03 -2.5231245187004622e-03 0.0000000000000000e+00  2.7525187163823166e-03 -2.5232298226691031e-03 0.0000000000000000e+00  2.8369021224991802e-03 -2.5234158285428530e-03 0.0000000000000000e+00  2.9219056533513828e-03 -2.5248145547476009e-03 0.0000000000000000e+00  3.0532644327183355e-03 -2.5268653896860492e-03 0