<?xml version="1.0"?>
<VTKFile type="UnstructuredGrid"  version="0.1"  >
<UnstructuredGrid>
<Piece  NumberOfPoints="16065" NumberOfCells="31592">
<Points>
<DataArray  type="Float64"  NumberOfComponents="3"  format="ascii">0 0.3333333333333333 0  0 0 0  1 0 0  1 0.05555555555555555 0  1 0.1333333333333333 0  0.9333333333333333 0.1333333333333333 0  0.9333333333333333 0.2 0  1 0.2 0  1 0.3333333333333333 0  0 0.3283582089552355 0  0 0.3233830845771466 0  0 0.3184079601990478 0  0 0.3134328358209529 0  0 0.3084577114428612 0  0 0.3034825870647574 0  0 0.2985074626866487 0  0 0.2935323383085401 0  0 0.2885572139304335 0  0 0.2835820895523445 0  0 0.2786069651742469 0  0 0.2736318407961489 0  0 0.2686567164180402 0  0 0.2636815920399506 0  0 0.2587064676618518 0  0 0.2537313432837577 0  0 0.2487562189056677 0  0 0.2437810945275751 0  0 0.2388059701494822 0  0 0.233830845771385 0  0 0.228855721393291 0  0 0.2238805970151982 0  0 0.2189054726370999 0  0 0.213930348259007 0  0 0.2089552238809128 0  0 0.2039800995028158 0  0 0.199004975124723 0  0 0.1940298507466273 0  0 0.1890547263685318 0  0 0.1840796019904389 0  0 0.1791044776123418 0  0 0.1741293532342478 0  0 0.1691542288561549 0  0 0.1641791044780463 0  0 0.1592039800999219 0  0 0.1542288557217986 0  0 0.1492537313436784 0  0 0.144278606965554 0  0 0.1393034825874322 0  0 0.1343283582093106 0  0 0.1293532338311862 0  0 0.1243781094530658 0  0 0.1194029850749427 0  0 0.1144278606968183 0  0 0.1094527363186993 0  0 0.1044776119405749 0  0 0.09950248756245161 0  0 0.09452736318433147 0  0 0.08955223880620702 0  0 0.08457711442808519 0  0 0.07960199004996127 0  0 0.07462686567183563 0  0 0.06965174129371338 0  0 0.0646766169155949 0  0 0.05970149253746632 0  0 0.05472636815934701 0  0 0.04975124378122736 0  0 0.04477611940309911 0  0 0.03980099502498063 0  0 0.03482587064685805 0  0 0.02985074626873274 0  0 0.02487562189061426 0  0 0.01990049751248874 0  0 0.01492537313436632 0  0 0.009950248756247781 0  0 0.004975124378119478 0  0.00499999999999053 0 0  0.009999999999981104 0 0  0.01499999999997174 0 0  0.01999999999996237 0 0  0.02499999999995287 0 0  0.02999999999994307 0 0  0.03499999999993262 0 0  0.03999999999992186 0 0  0.04499999999991076 0 0  0.04999999999989966 0 0  0.05499999999988862 0 0  0.05999999999987837 0 0  0.06499999999986901 0 0  0.06999999999986051 0 0  0.07499999999985282 0 0  0.07999999999984518 0 0  0.08499999999983754 0 0  0.0899999999998299 0 0  0.09499999999982227 0 0  0.09999999999981463 0 0  0.104999999999807 0 0  0.1099999999997994 0 0  0.1149999999997918 0 0  0.1199999999997832 0 0  0.1249999999997738 0 0  0.1299999999997609 0 0  0.1349999999997473 0 0  0.1399999999997328 0 0  0.1449999999997182 0 0  0.1499999999997036 0 0  0.1549999999996891 0 0  0.1599999999996745 0 0  0.1649999999996599 0 0  0.1699999999996453 0 0  0.1749999999996308 0 0  0.1799999999996162 0 0  0.1849999999996016 0 0  0.189999999999587 0 0  0.1949999999995725 0 0  0.1999999999995579 0 0  0.2049999999995433 0 0  0.2099999999995288 0 0  0.2149999999995142 0 0  0.2199999999994996 0 0  0.224999999999485 0 0  0.2299999999994704 0 0  0.2349999999994558 0 0  0.2399999999994413 0 0  0.2449999999994267 0 0  0.2499999999994121 0 0  0.2549999999993976 0 0  0.259999999999383 0 0  0.2649999999993684 0 0  0.2699999999993538 0 0  0.2749999999993393 0 0  0.2799999999993247 0 0  0.2849999999993101 0 0  0.2899999999992955 0 0  0.2949999999992809 0 0  0.2999999999992664 0 0  0.3049999999992518 0 0  0.3099999999992372 0 0  0.3149999999992227 0 0  0.3199999999992081 0 0  0.3249999999991935 0 0  0.329999999999179 0 0  0.3349999999991644 0 0  0.3399999999991498 0 0  0.3449999999991352 0 0  0.3499999999991207 0 0  0.3549999999991061 0 0  0.3599999999990915 0 0  0.364999999999077 0 0  0.3699999999990624 0 0  0.3749999999990478 0 0  0.3799999999990332 0 0  0.3849999999990187 0 0  0.3899999999990041 0 0  0.3949999999989895 0 0  0.3999999999989749 0 0  0.4049999999989604 0 0  0.4099999999989458 0 0  0.4149999999989312 0 0  0.4199999999989167 0 0  0.4249999999989021 0 0  0.4299999999988875 0 0  0.4349999999988729 0 0  0.4399999999988584 0 0  0.4449999999988438 0 0  0.4499999999988292 0 0  0.4549999999988146 0 0  0.4599999999988 0 0  0.4649999999987854 0 0  0.4699999999987708 0 0  0.4749999999987564 0 0  0.4799999999987418 0 0  0.4849999999987272 0 0  0.4899999999987126 0 0  0.4949999999987019 0 0  0.4999999999986943 0 0  0.5049999999987005 0 0  0.5099999999987098 0 0  0.514999999998723 0 0  0.5199999999987361 0 0  0.5249999999987494 0 0  0.5299999999987626 0 0  0.5349999999987757 0 0  0.5399999999987888 0 0  0.544999999998802 0 0  0.5499999999988152 0 0  0.5549999999988283 0 0  0.5599999999988415 0 0  0.5649999999988546 0 0  0.5699999999988679 0 0  0.574999999998881 0 0  0.5799999999988942 0 0  0.5849999999989073 0 0  0.5899999999989205 0 0  0.5949999999989336 0 0  0.5999999999989468 0 0  0.6049999999989599 0 0  0.6099999999989731 0 0  0.6149999999989864 0 0  0.6199999999989995 0 0  0.6249999999990127 0 0  0.6299999999990258 0 0  0.634999999999039 0 0  0.6399999999990521 0 0  0.6449999999990653 0 0  0.6499999999990784 0 0  0.6549999999990916 0 0  0.6599999999991049 0 0  0.664999999999118 0 0  0.6699999999991312 0 0  0.6749999999991442 0 0  0.6799999999991574 0 0  0.6849999999991706 0 0  0.6899999999991837 0 0  0.6949999999991969 0 0  0.6999999999992101 0 0  0.7049999999992232 0 0  0.7099999999992365 0 0  0.7149999999992497 0 0  0.7199999999992628 0 0  0.724999999999276 0 0  0.7299999999992892 0 0  0.7349999999993022 0 0  0.7399999999993154 0 0  0.7449999999993285 0 0  0.7499999999993417 0 0  0.754999999999355 0 0  0.7599999999993681 0 0  0.7649999999993813 0 0  0.7699999999993945 0 0  0.7749999999994075 0 0  0.7799999999994207 0 0  0.7849999999994339 0 0  0.789999999999447 0 0  0.7949999999994602 0 0  0.7999999999994734 0 0  0.8049999999994866 0 0  0.8099999999994998 0 0  0.8149999999995129 0 0  0.8199999999995261 0 0  0.8249999999995393 0 0  0.8299999999995523 0 0  0.8349999999995655 0 0  0.8399999999995788 0 0  0.8449999999995919 0 0  0.8499999999996051 0 0  0.8549999999996183 0 0  0.8599999999996314 0 0  0.8649999999996446 0 0  0.8699999999996577 0 0  0.8749999999996709 0 0  0.8799999999996841 0 0  0.8849999999996971 0 0  0.8899999999997104 0 0  0.8949999999997236 0 0  0.8999999999997367 0 0  0.9049999999997499 0 0  0.9099999999997631 0 0  0.9149999999997762 0 0  0.9199999999997894 0 0  0.9249999999998026 0 0  0.9299999999998156 0 0  0.9349999999998289 0 0  0.939999999999842 0 0  0.9449999999998552 0 0  0.9499999999998684 0 0  0.9549999999998815 0 0  0.9599999999998947 0 0  0.9649999999999079 0 0  0.969999999999921 0 0  0.9749999999999343 0 0  0.9799999999999475 0 0  0.9849999999999605 0 0  0.9899999999999737 0 0  0.9949999999999868 0 0  1 0.004629629629621038 0  1 0.009259259259238989 0  1 0.01388888888885587 0  1 0.0185185185184723 0  1 0.02314814814808873 0  1 0.02777777777770583 0  1 0.03240740740734689 0  1 0.0370370370369886 0  1 0.04166666666663033 0  1 0.04629629629627208 0  1 0.05092592592591381 0  1 0.06041666666665547 0  1 0.0652777777777554 0  1 0.07013888888885125 0  1 0.07499999999994983 0  1 0.07986111111104839 0  1 0.08472222222214695 0  1 0.08958333333323469 0  1 0.09444444444433597 0  1 0.09930555555545895 0  1 0.1041666666665819 0  1 0.1090277777777076 0  1 0.1138888888888306 0  1 0.118749999999959 0  1 0.1236111111110847 0  1 0.1284722222222077 0  0.995238095238089 0.1333333333333333 0  0.9904761904761719 0.1333333333333333 0  0.9857142857142888 0.1333333333333333 0  0.9809523809523778 0.1333333333333333 0  0.9761904761904948 0.1333333333333333 0  0.9714285714286179 0.1333333333333333 0  0.9666666666667534 0.1333333333333333 0  0.9619047619048208 0.1333333333333333 0  0.9571428571429254 0.1333333333333333 0  0.9523809523809988 0.1333333333333333 0  0.9476190476190879 0.1333333333333333 0  0.9428571428571615 0.1333333333333333 0  0.9380952380952443 0.1333333333333333 0  0.9333333333333333 0.1380952380952311 0  0.9333333333333333 0.1428571428571127 0  0.9333333333333333 0.1476190476190166 0  0.9333333333333333 0.1523809523809082 0  0.9333333333333333 0.1571428571427805 0  0.9333333333333333 0.1619047619046937 0  0.9333333333333333 0.1666666666665745 0  0.9333333333333333 0.1714285714284932 0  0.9333333333333333 0.1761904761904134 0  0.9333333333333333 0.1809523809523275 0  0.9333333333333333 0.185714285714247 0  0.9333333333333333 0.1904761904761665 0  0.9333333333333333 0.1952380952380805 0  0.9380952380952443 0.2 0  0.9428571428571615 0.2 0  0.9476190476190446 0.2 0  0.9523809523809555 0.2 0  0.9571428571428385 0.2 0  0.9619047619047154 0.2 0  0.96666666666658 0.2 0  0.9714285714285126 0.2 0  0.976190476190408 0.2 0  0.9809523809523345 0.2 0  0.9857142857142455 0.2 0  0.9904761904761719 0.2 0  0.995238095238089 0.2 0  1 0.2049382716049228 0  1 0.2098765432098617 0  1 0.2148148148147805 0  1 0.2197530864197075 0  1 0.2246913580246271 0  1 0.2296296296295531 0  1 0.2345679012344705 0  1 0.2395061728393821 0  1 0.244444444444336 0  1 0.2493827160492443 0  1 0.2543209876541471 0  1 0.259259259259105 0  1 0.2641975308640344 0  1 0.2691358024689626 0  1 0.2740740740739138 0  1 0.2790123456788717 0  1 0.2839506172838188 0  1 0.288888888888766 0  1 0.2938271604937239 0  1 0.298765432098671 0  1 0.3037037037036181 0  1 0.3086419753085761 0  1 0.313580246913534 0  1 0.3185185185184727 0  1 0.3234567901234283 0  1 0.3283950617283834 0  0.9949999999999791 0.3333333333333333 0  0.9899999999999584 0.3333333333333333 0  0.9849999999999375 0.3333333333333333 0  0.9799999999999167 0.3333333333333333 0  0.9749999999998958 0.3333333333333333 0  0.9699999999998751 0.3333333333333333 0  0.9649999999998542 0.3333333333333333 0  0.9599999999998334 0.3333333333333333 0  0.9549999999998126 0.3333333333333333 0  0.9499999999997918 0.3333333333333333 0  0.9449999999997709 0.3333333333333333 0  0.9399999999997501 0.3333333333333333 0  0.9349999999997293 0.3333333333333333 0  0.9299999999997085 0.3
[...]
<PointData  Vectors="Displacement"> 
<DataArray  type="Float64"  Name="Displacement"  NumberOfComponents="3" format="ascii">0.0000000000000000e+00 0.0000000000000000e+00 0.0000000000000000e+00  0.0000000000000000e+00 0.0000000000000000e+00 0.0000000000000000e+00  2.3877992325956562e-03 -2.5291066871142090e-03 0.0000000000000000e+00  3.6801247104602313e-03 -2.4444783560310514e-03 0.0000000000000000e+00  5.1708118520171304e-03 -1.4675405612684354e-03 0.0000000000000000e+00  4.8131680959499056e-03 -4.8139737954495444e-04 0.0000000000000000e+00  5.5388391320044432e-03 -1.6294173727284428e-04 0.0000000000000000e+00  5.8254471247356759e-03 -1.1615432118104523e-03 0.0000000000000000e+00  6.6377611411760950e-03 -8.9818903973364625e-04 0.0000000000000000e+00  0.0000000000000000e+00 0.0000000000000000e+00 0.0000000000000000e+00  0.0000000000000000e+00 0.0000000000000000e+00 0.0000000000000000e+00  0.0000000000000000e+00 0.0000000000000000e+00 0.0000000000000000e+00  0.0000000000000000e+00 0.0000000000000000e+00 0.0000000000000000e+00  0.0000000000000000e+00 0.0000000000000000e+00 0.0000000000000000e+00  0.0000000000000000e+00 0.0000000000000000e+00 0.0000000000000000e+00  0.0000000000000000e+00 0.0000000000000000e+00 0.0000000000000000e+00  0.0000000000000000e+00 0.0000000000000000e+00 0.0000000000000000e+00  0.0000000000000000e+00 0.0000000000000000e+00 0.0000000000000000e+00  0.0000000000000000e+00 0.0000000000000000e+00 0.0000000000000000e+00  0.0000000000000000e+00 0.0000000000000000e+00 0.0000000000000000e+00  0.0000000000000000e+00 0.0000000000000000e+00 0.0000000000000000e+00  0.0000000000000000e+00 0.0000000000000000e+00 0.0000000000000000e+00  0.0000000000000000e+00 0.0000000000000000e+00 0.0000000000000000e+00  0.0000000000000000e+00 0.0000000000000000e+00 0.0000000000000000e+00  0.0000000000000000e+00 0.0000000000000000e+00 0.0000000000000000e+00  0.0000000000000000e+00 0.0000000000000000e+00 0.0000000000000000e+00  0.0000000000000000e+00 0.0000000000000000e+00 0.0000000000000000e+00  0.0000000000000000e+00 0.0000000000000000e+00 0.0000000000000000e+00  0.0000000000000000e+00 0.0000000000000000e+00 0.0000000000000000e+00  0.0000000000000000e+00 0.0000000000000000e+00 0.0000000000000000e+00  0.0000000000000000e+00 0.0000000000000000e+00 0.0000000000000000e+00  0.0000000000000000e+00 0.0000000000000000e+00 0.0000000000000000e+00  0.0000000000000000e+00 0.0000000000000000e+00 0.0000000000000000e+00  0.0000000000000000e+00 0.0000000000000000e+00 0.0000000000000000e+00  0.0000000000000000e+00 0.0000000000000000e+00 0.0000000000000000e+00  0.0000000000000000e+00 0.0000000000000000e+00 0.0000000000000000e+00  0.0000000000000000e+00 0.0000000000000000e+00 0.0000000000000000e+00  0.0000000000000000e+00 0.0000000000000000e+00 0.0000000000000000e+00  0.0000000000000000e+00 0.0000000000000000e+00 0.0000000000000000e+00  0.0000000000000000e+00 0.0000000000000000e+00 0.0000000000000000e+00  0.0000000000000000e+00 0.0000000000000000e+00 0.0000000000000000e+00  0.0000000000000000e+00 0.0000000000000000e+00 0.0000000000000000e+00  0.0000000000000000e+00 0.0000000000000000e+00 0.0000000000000000e+00  0.0000000000000000e+00 0.0000000000000000e+00 0.0000000000000000e+00  0.0000000000000000e+00 0.0000000000000000e+00 0.0000000000000000e+00  0.0000000000000000e+00 0.0000000000000000e+00 0.0000000000000000e+00  0.0000000000000000e+00 0.0000000000000000e+00 0.0000000000000000e+00  0.0000000000000000e+00 0.0000000000000000e+00 0.0000000000000000e+00  0.0000000000000000e+00 0.0000000000000000e+00 0.0000000000000000e+00  0.0000000000000000e+00 0.0000000000000000e+00 0.0000000000000000e+00  0.0000000000000000e+00 0.0000000000000000e+00 0.0000000000000000e+00  0.0000000000000000e+00 0.0000000000000000e+00 0.0000000000000000e+00  0.0000000000000000e+00 0.0000000000000000e+00 0.0000000000000000e+00  0.0000000000000000e+00 0.0000000000000000e+00 0.0000000000000000e+00  0.0000000000000000e+00 0.0000000000000000e+00 0.0000000000000000e+00  0.0000000000000000e+00 0.0000000000000000e+00 0.0000000000000000e+00  0.0000000000000000e+00 0.0000000000000000e+00 0.0000000000000000e+00  0.0000000000000000e+00 0.0000000000000000e+00 0.0000000000000000e+00  0.0000000000000000e+00 0.0000000000000000e+00 0.0000000000000000e+00  0.0000000000000000e+00 0.0000000000000000e+00 0.0000000000000000e+00  0.0000000000000000e+00 0.0000000000000000e+00 0.0000000000000000e+00  0.0000000000000000e+00 0.0000000000000000e+00 0.0000000000000000e+00  0.0000000000000000e+00 0.0000000000000000e+00 0.0000000000000000e+00  0.0000000000000000e+00 0.0000000000000000e+00 0.0000000000000000e+00  0.0000000000000000e+00 0.0000000000000000e+00 0.0000000000000000e+00  0.0000000000000000e+00 0.0000000000000000e+00 0.0000000000000000e+00  0.0000000000000000e+00 0.0000000000000000e+00 0.0000000000000000e+00  0.0000000000000000e+00 0.0000000000000000e+00 0.0000000000000000e+00  0.0000000000000000e+00 0.0000000000000000e+00 0.0000000000000000e+00  0.0000000000000000e+00 0.0000000000000000e+00 0.0000000000000000e+00  0.0000000000000000e+00 0.0000000000000000e+00 0.0000000000000000e+00  0.0000000000000000e+00 0.0000000000000000e+00 0.0000000000000000e+00  0.0000000000000000e+00 0.0000000000000000e+00 0.0000000000000000e+00  0.0000000000000000e+00 0.0000000000000000e+00 0.0000000000000000e+00  0.0000000000000000e+00 0.0000000000000000e+00 0.0000000000000000e+00  -2.7570093383018029e-05 -2.7347519582657600e-05 0.0000000000000000e+00  -4.6471157736351070e-05 -5.3107146886680158e-05 0.0000000000000000e+00  -6.0370718065883866e-05 -8.3748830654548914e-05 0.0000000000000000e+00  -7.0143910617218914e-05 -1.1801918738271637e-04 0.0000000000000000e+00  -7.6273851169114811e-05 -1.5519115961273508e-04 0.0000000000000000e+00  -7.9239282218271218e-05 -1.9469025677500086e-04 0.0000000000000000e+00  -7.9396395378298308e-05 -2.3573322337775676e-04 0.0000000000000000e+00  -7.7306141315824637e-05 -2.7828413960614008e-04 0.0000000000000000e+00  -7.3126323386757535e-05 -3.2178513713125605e-04 0.0000000000000000e+00  -6.7292356883543529e-05 -3.6597750159413187e-04 0.0000000000000000e+00  -6.0102600500585307e-05 -4.1124621008192434e-04 0.0000000000000000e+00  -5.1703015545876553e-05 -4.5715109514445784e-04 0.0000000000000000e+00  -4.2239210110924109e-05 -5.0410822909441441e-04 0.0000000000000000e+00  -3.1726244099412735e-05 -5.5205550956246511e-04 0.0000000000000000e+00  -2.0333703028999213e-05 -6.0100246356418899e-04 0.0000000000000000e+00  -8.0557750802831041e-06 -6.5114259785947325e-04 0.0000000000000000e+00  5.0435131766416050e-06 -7.0217561713458115e-04 0.0000000000000000e+00  1.8967331462999300e-05 -7.5424314117713859e-04 0.0000000000000000e+00  3.3680047281828134e-05 -8.0740100827786604e-04 0.0000000000000000e+00  4.9242951769006144e-05 -8.6160874619303947e-04 0.0000000000000000e+00  6.5572868484686540e-05 -9.1674195490803654e-04 0.0000000000000000e+00  8.2662909440815098e-05 -9.7264907956164104e-04 0.0000000000000000e+00  1.0036294186925266e-04 -1.0296902154622771e-03 0.0000000000000000e+00  1.1858539640385466e-04 -1.0875833220375449e-03 0.0000000000000000e+00  1.3758035186058632e-04 -1.1464915592907666e-03 0.0000000000000000e+00  1.5711345845801275e-04 -1.2063751365566286e-03 0.0000000000000000e+00  1.7708855340799431e-04 -1.2671465511043816e-03 0.0000000000000000e+00  1.9751886857890727e-04 -1.3289482394445271e-03 0.0000000000000000e+00  2.1837502989768723e-04 -1.3918221993900394e-03 0.0000000000000000e+00  2.3961842712334403e-04 -1.4558503175665367e-03 0.0000000000000000e+00  2.6128130209805673e-04 -1.5210973396810488e-03 0.0000000000000000e+00  2.8341107945727508e-04 -1.5875531461330375e-03 0.0000000000000000e+00  3.0602579837696889e-04 -1.6551277522182614e-03 0.0000000000000000e+00  3.2921799499857401e-04 -1.7238611778754595e-03 0.0000000000000000e+00  3.5311659733904829e-04 -1.7936234760476772e-03 0.0000000000000000e+00  3.7783554365370173e-04 -1.8641818302776371e-03 0.0000000000000000e+00  4.0345731090659265e-04 -1.9351596905143641e-03 0.0000000000000000e+00  4.2991949220387083e-04 -2.0061423486959101e-03 0.0000000000000000e+00  4.5720668049684143e-04 -2.0769549164391418e-03 0.0000000000000000e+00  4.8527407885742352e-04 -2.1472484361745167e-03 0.0000000000000000e+00  5.1401687880634449e-04 -2.2167767303029255e-03 0.0000000000000000e+00  5.4336208374559502e-04 -2.2853393204217802e-03 0.0000000000000000e+00  5.7330357597312135e-04 -2.3527814251409753e-03 0.0000000000000000e+00  6.0384744089244768e-04 -2.4188734209915175e-03 0.0000000000000000e+00  6.3495809351766792e-04 -2.4833272234222343e-03 0.0000000000000000e+00  6.6666404269738206e-04 -2.5460554419255402e-03 0.0000000000000000e+00  6.9904826302102398e-04 -2.6067143186810728e-03 0.0000000000000000e+00  7.3203710312687450e-04 -2.6649626689936668e-03 0.0000000000000000e+00  7.6551495767718247e-04 -2.7204465505842059e-03 0.0000000000000000e+00  7.9933720885917118e-04 -2.7729665268575168e-03 0.0000000000000000e+00  8.3330136714558688e-04 -2.8222179332984044e-03 0.0000000000000000e+00  8.6705710874974290e-04 -2.8681456458132738e-03 0.0000000000000000e+00  9.0048099250290402e-04 -2.9110201260747139e-03 0.0000000000000000e+00  9.3334954534636907e-04 -2.9510664516899919e-03 0.0000000000000000e+00  9.6558534899562854e-04 -2.9886074951402807e-03 0.0000000000000000e+00  9.9706052100166534e-04 -3.0239117643691225e-03 0.0000000000000000e+00  1.0277663049337274e-03 -3.0572157230968921e-03 0.0000000000000000e+00  1.0576904400849635e-03 -3.0890760644021321e-03 0.0000000000000000e+00  1.0868871128243314e-03 -3.1200427839854559e-03 0.0000000000000000e+00  1.1154807420072131e-03 -3.1500168152659362e-03 0.0000000000000000e+00  1.1434764297039092e-03 -3.1793933281813579e-03 0.0000000000000000e+00  1.1708469520807553e-03 -3.2084823279330283e-03 0.0000000000000000e+00  1.1977307728367227e-03 -3.2374030643088467e-03 0.0000000000000000e+00  1.2240887327285685e-03 -3.2661614211653505e-03 0.0000000000000000e+00  1.2499347661266882e-03 -3.2950514737532118e-03 0.0000000000000000e+00  1.2753503550196280e-03 -3.3242706325550533e-03 0.0000000000000000e+00  1.3003672505330214e-03 -3.3539743755525574e-03 0.0000000000000000e+00  1.3250054445690810e-03 -3.3842998161525764e-03 0.0000000000000000e+00  1.3493127243695516e-03 -3.4154018770988217e-03 0.0000000000000000e+00  1.3733402322199618e-03 -3.4473564316957065e-03 0.0000000000000000e+00  1.3970425176191908e-03 -3.4801998734660168e-03 0.0000000000000000e+00  1.4204473093074640e-03 -3.5141825292810446e-03 0.0000000000000000e+00  1.4436022659916903e-03 -3.5494282133098644e-03 0.0000000000000000e+00  1.4665170656432908e-03 -3.5860361894640307e-03 0.0000000000000000e+00  1.4892204568040864e-03 -3.6241173091723054e-03 0.0000000000000000e+00  1.5117902019611889e-03 -3.6637943895914292e-03 0.0000000000000000e+00  1.5343193321212744e-03 -3.7049432722384111e-03 0.0000000000000000e+00  1.5567324682299591e-03 -3.7476252212777597e-03 0.0000000000000000e+00  1.5790718800237321e-03 -3.7919880522091698e-03 0.0000000000000000e+00  1.6013364566238124e-03 -3.8380698031166565e-03 0.0000000000000000e+00  1.6235246989440967e-03 -3.8859137049339259e-03 0.0000000000000000e+00  1.6456315416710572e-03 -3.9355306149014774e-03 0.0000000000000000e+00  1.6676130687913683e-03 -3.9869291887962956e-03 0.0000000000000000e+00  1.6894436797567085e-03 -4.0404328859574914e-03 0.0000000000000000e+00  1.7112969206533313e-03 -4.0962486989944537e-03 0.0000000000000000e+00  1.7333508109085131e-03 -4.1542032276343935e-03 0.0000000000000000e+00  1.7558162217328581e-03 -4.2144298689501154e-03 0.0000000000000000e+00  1.7790690953587147e-03 -4.2768220645651141e-03 0.0000000000000000e+00  1.8036448805206068e-03 -4.3408354471594687e-03 0.0000000000000000e+00  1.8300640947016005e-03 -4.4053998076302101e-03 0.0000000000000000e+00  1.8588352043546201e-03 -4.4693900544867252e-03 0.0000000000000000e+00  1.8908567528360726e-03 -4.5309534633508550e-03 0.0000000000000000e+00  1.9268656987131880e-03 -4.5870329561993207e-03 0.0000000000000000e+00  1.9665986695480025e-03 -4.6362391698581400e-03 0.0000000000000000e+00  2.0075598164242471e-03 -4.6734818019061649e-03 0.0000000000000000e+00  2.0512803226173473e-03 -4.6968684966958883e-03 0.0000000000000000e+00  2.0939151518890192e-03 -4.7074191370783591e-03 0.0000000000000000e+00  2.1333765444880933e-03 -4.7060219792959754e-03 0.0000000000000000e+00  2.1702361049582802e-03 -4.6965554160296845e-03 0.0000000000000000e+00  2.2053160939503776e-03 -4.6793595596491292e-03 0.0000000000000000e+00  2.2394919603583681e-03 -4.6565687566007237e-03 0.0000000000000000e+00  2.2730880652389483e-03 -4.6250458096633610e-03 0.0000000000000000e+00  2.3095786836776059e-03 -4.5822873685204624e-03 0.0000000000000000e+00  2.3457669474130564e-03 -4.5264749539474453e-03 0.0000000000000000e+00  2.3806945682613287e-03 -4.4570600059163218e-03 0.0000000000000000e+00  2.4140532251182472e-03 -4.3757881103782675e-03 0.0000000000000000e+00  2.4451317708640186e-03 -4.2842340693661496e-03 0.0000000000000000e+00  2.4741040522393192e-03 -4.1840171858409797e-03 0.0000000000000000e+00  2.5003634755671458e-03 -4.0768559145229607e-03 0.0000000000000000e+00  2.5243012754407835e-03 -3.9646358214739932e-03 0.0000000000000000e+00  2.5459146865909575e-03 -3.8502386838596453e-03 0.0000000000000000e+00  2.5651780177398612e-03 -3.7338501067280534e-03 0.0000000000000000e+00  2.5824772223690751e-03 -3.6169663895800090e-03 0.0000000000000000e+00  2.5981332750919669e-03 -3.5005657788080118e-03 0.0000000000000000e+00  2.6121790280420735e-03 -3.3856606535509473e-03 0.0000000000000000e+00  2.6249192297077462e-03 -3.2733970712009400e-03 0.0000000000000000e+00  2.6364168002716700e-03 -3.1641752594107906e-03 0.0000000000000000e+00  2.6465999311623360e-03 -3.0591706108221489e-03 0.0000000000000000e+00  2.6559893144845461e-03 -2.9588554692254712e-03 0.0000000000000000e+00  2.6637414979641303e-03 -2.8639932646381096e-03 0.0000000000000000e+00  2.6709888981679827e-03 -2.7748019415513312e-03 0.0000000000000000e+00  2.6761958504733195e-03 -2.6918455463078371e-03 0.0000000000000000e+00  2.6804272874834736e-03 -2.6160693076087275e-03 0.0000000000000000e+00  2.6840215609625732e-03 -2.5476695439098375e-03 0.0000000000000000e+00  2.6873625880923144e-03 -2.4862233995547448e-03 0.0000000000000000e+00  2.6907551427652943e-03 -2.4325161603630904e-03 0.0000000000000000e+00  2.6946892155941299e-03 -2.3852525286368665e-03 0.0000000000000000e+00  2.6990212159277880e-03 -2.3439599072613260e-03 0.0000000000000000e+00  2.7040795264899726e-03 -2.3085784277720872e-03 0.0000000000000000e+00  2.7099007199750803e-03 -2.2778056178745731e-03 0.0000000000000000e+00  2.7165236157057934e-03 -2.2508943795854471e-03 0.0000000000000000e+00  2.7237281482726684e-03 -2.2269803973780549e-03 0.0000000000000000e+00  2.7314839520827050e-03 -2.2054996284563149e-03 0.0000000000000000e+00  2.7396819025332537e-03 -2.1858967937292690e-03 0.0000000000000000e+00  2.7482741445593027e-03 -2.1674448551718267e-03 0.0000000000000000e+00  2.7571684492611885e-03 -2.1497230932511087e-03 0.0000000000000000e+00  2.7661106164672137e-03 -2.1325001521799287e-03 0.0000000000000000e+00  2.7751170123080514e-03 -2.1155406988398857e-03 0.0000000000000000e+00  2.7839376510921943e-03 -2.0990016304740979e-03 0.0000000000000000e+00  2.7925481872835977e-03 -2.0830998300032464e-03 0.0000000000000000e+00  2.8009086754161756e-03 -2.0680159765279474e-03 0.0000000000000000e+00  2.8091433429514464e-03 -2.0539685120439777e-03 0.0000000000000000e+00  2.8171852420633575e-03 -2.0409551848995706e-03 0.0000000000000000e+00  2.8248365035490287e-03 -2.0288319501662448e-03 0.0000000000000000e+00  2.8322636517343655e-03 -2.0182001365946912e-03 0.0000000000000000e+00  2.8391785512440391e-03 -2.0098668499867116e-03 0.0000000000000000e+00  2.8457084000928917e-03 -2.0039661633293533e-03 0.0000000000000000e+00  2.8519254081147602e-03 -2.0006978316630822e-03 0.0000000000000000e+00  2.8577139557744136e-03 -2.0003930895844914e-03 0.0000000000000000e+00  2.8631282695208184e-03 -2.0035335366079179e-03 0.0000000000000000e+00  2.8682356646474319e-03 -2.0103357440521032e-03 0.0000000000000000e+00  2.8730145968968702e-03 -2.0210531552705179e-03 0.0000000000000000e+00  2.8775030315583978e-03 -2.0358363604255848e-03 0.0000000000000000e+00  2.8816396514043433e-03 -2.0548688034917563e-03 0.0000000000000000e+00  2.8855260683556278e-03 -2.0788378322881026e-03 0.0000000000000000e+00  2.8893811994611875e-03 -2.1075190183354841e-03 0.0000000000000000e+00  2.8931454389235457e-03 -2.1409253594001942e-03 0.0000000000000000e+00  2.8969916250769097e-03 -2.1789515464880928e-03 0.0000000000000000e+00  2.9007195030386450e-03 -2.2213269170171671e-03 0.0000000000000000e+00  2.9044612994920359e-03 -2.2682571107952546e-03 0.0000000000000000e+00  2.9082731351290528e-03 -2.3192732238531853e-03 0.0000000000000000e+00  2.9121276699582447e-03 -2.3744357040973939e-03 0.0000000000000000e+00  2.9162233015176935e-03 -2.4333018577231236e-03 0.0000000000000000e+00  2.9206315188840619e-03 -2.4957818181633004e-03 0.0000000000000000e+00  2.9254212844263897e-03 -2.5604673686416865e-03 0.0000000000000000e+00  2.9307320859286307e-03 -2.6266792407815464e-03 0.0000000000000000e+00  2.9366885773626900e-03 -2.6942738303192136e-03 0.0000000000000000e+00  2.9440013913853993e-03 -2.7607874114444113e-03 0.0000000000000000e+00  2.9561806531988900e-03 -2.8194560133132924e-03 0.0000000000000000e+00  3.0722879930884569e-03 -2.7947734044601862e-03 0.0000000000000000e+00  3.0985120525973925e-03 -2.7071209893592104e-03 0.0000000000000000e+00  3.1084214381787200e-03 -2.6104386179063980e-03 0.0000000000000000e+00  3.1145694917178316e-03 -2.5146106045932292e-03 0.0000000000000000e+00  3.1244787441289121e-03 -2.4168386770862171e-03 0.0000000000000000e+00  3.1341486116739136e-03 -2.3212651045901901e-03 0.0000000000000000e+00  3.1418665514991086e-03 -2.2284523050201508e-03 0.0000000000000000e+00  3.1481968052190132e-03 -2.1370590499957096e-03 0.0000000000000000e+00  3.1502595829752695e-03 -2.0460837778527017e-03 0.0000000000000000e+00  3.1477028914782849e-03 -1.9608637914641535e-03 0.0000000000000000e+00  3.1415724689647577e-03 -1.8824495271758826e-03 0.0000000000000000e+00  3.1309203711848976e-03 -1.8099027658200668e-03 0.0000000000000000e+00  3.1143318858466119e-03 -1.7433029058834002e-03 0.0000000000000000e+00  3.0919081808789893e-03 -1.6844882542262046e-03 0.0000000000000000e+00  3.0642233134985639e-03 -1.6349974000905080e-03 0.0000000000000000e+00  3.0316127821943084e-03 -1.5952950725318521e-03 0.0000000000000000e+00  2.9944882093311397e-03 -1.5657116662542321e-03 0.0000000000000000e+00  2.9529327871233588e-03 -1.5465047792373020e-03 0.0000000000000000e+00  2.9064549843367984e-03 -1.5377143118470546e-03 0.0000000000000000e+00  2.8544346978214884e-03 -1.5414054798301578e-03 0.0000000000000000e+00  2.7974112395958164e-03 -1.5588100299928139e-03 0.0000000000000000e+00  2.7359958014784680e-03 -1.5917952080705970e-03 0.0000000000000000e+00  2.6717127624107458e-03 -1.6423353372946917e-03 0.0000000000000000e+00  2.6076178226913777e-03 -1.7112856994864760e-03 0.0000000000000000e+00  2.5458548838096511e-03 -1.7993130446336953e-03 0.0000000000000000e+00  2.4915955600257784e-03 -1.9037900225177117e-03 0.0000000000000000e+00  2.4436356452571645e-03 -2.0250600595198452e-03 0.0000000000000000e+00  2.4073674402873731e-03 -2.1557752926219843e-03 0.0000000000000000e+00  2.3872669566250069e-03 -2.2956175560567976e-03 0.0000000000000000e+00  2.3872985025375579e-03 -2.4136181176933800e-03 0.0000000000000000e+00  2.4925119906717102e-03 -2.5252447676840828e-03 0.0000000000000000e+00  2.5837518067299034e-03 -2.5230276293269466e-03 0.0000000000000000e+00  2.6682829556808167e-03 -2.5230869413156308e-03 0.0000000000000000e+00  2.7524131569414264e-03 -2.5231922356659295e-03 0.0000000000000000e+00  2.8367953539869296e-03 -2.5233782267902534e-03 0.0000000000000000e+00  2.9217976578808026e-03 -2.5247768831899767e-03 0.0000000000000000e+00  3.0531530368612947e-03 -2.5268276131361384e-03 0