<?xml version="1.0"?>
<VTKFile type="UnstructuredGrid"  version="0.1"  >
<UnstructuredGrid>
<Piece  NumberOfPoints="16065" NumberOfCells="31592">
<Points>
<DataArray  type="Float64"  NumberOfComponents="3"  format="ascii">0 0.3333333333333333 0  0 0 0  1 0 0  1 0.05555555555555555 0  1 0.1333333333333333 0  0.9333333333333333 0.1333333333333333 0  0.9333333333333333 0.2 0  1 0.2 0  1 0.3333333333333333 0  0 0.3283582089552355 0  0 0.3233830845771466 0  0 0.3184079601990478 0  0 0.3134328358209529 0  0 0.3084577114428612 0  0 0.3034825870647574 0  0 0.2985074626866487 0  0 0.2935323383085401 0  0 0.2885572139304335 0  0 0.2835820895523445 0  0 0.2786069651742469 0  0 0.2736318407961489 0  0 0.2686567164180402 0  0 0.2636815920399506 0  0 0.2587064676618518 0  0 0.2537313432837577 0  0 0.2487562189056677 0  0 0.2437810945275751 0  0 0.2388059701494822 0  0 0.233830845771385 0  0 0.228855721393291 0  0 0.2238805970151982 0  0 0.2189054726370999 0  0 0.213930348259007 0  0 0.2089552238809128 0  0 0.2039800995028158 0  0 0.199004975124723 0  0 0.1940298507466273 0  0 0.1890547263685318 0  0 0.1840796019904389 0  0 0.1791044776123418 0  0 0.1741293532342478 0  0 0.1691542288561549 0  0 0.1641791044780463 0  0 0.1592039800999219 0  0 0.1542288557217986 0  0 0.1492537313436784 0  0 0.144278606965554 0  0 0.1393034825874322 0  0 0.1343283582093106 0  0 0.1293532338311862 0  0 0.1243781094530658 0  0 0.1194029850749427 0  0 0.1144278606968183 0  0 0.1094527363186993 0  0 0.1044776119405749 0  0 0.09950248756245161 0  0 0.09452736318433147 0  0 0.08955223880620702 0  0 0.08457711442808519 0  0 0.07960199004996127 0  0 0.07462686567183563 0  0 0.06965174129371338 0  0 0.0646766169155949 0  0 0.05970149253746632 0  0 0.05472636815934701 0  0 0.04975124378122736 0  0 0.04477611940309911 0  0 0.03980099502498063 0  0 0.03482587064685805 0  0 0.02985074626873274 0  0 0.02487562189061426 0  0 0.01990049751248874 0  0 0.01492537313436632 0  0 0.009950248756247781 0  0 0.004975124378119478 0  0.00499999999999053 0 0  0.009999999999981104 0 0  0.01499999999997174 0 0  0.01999999999996237 0 0  0.02499999999995287 0 0  0.02999999999994307 0 0  0.03499999999993262 0 0  0.03999999999992186 0 0  0.04499999999991076 0 0  0.04999999999989966 0 0  0.05499999999988862 0 0  0.05999999999987837 0 0  0.06499999999986901 0 0  0.06999999999986051 0 0  0.07499999999985282 0 0  0.07999999999984518 0 0  0.08499999999983754 0 0  0.0899999999998299 0 0  0.09499999999982227 0 0  0.09999999999981463 0 0  0.104999999999807 0 0  0.1099999999997994 0 0  0.1149999999997918 0 0  0.1199999999997832 0 0  0.1249999999997738 0 0  0.1299999999997609 0 0  0.1349999999997473 0 0  0.1399999999997328 0 0  0.1449999999997182 0 0  0.1499999999997036 0 0  0.1549999999996891 0 0  0.1599999999996745 0 0  0.1649999999996599 0 0  0.1699999999996453 0 0  0.1749999999996308 0 0  0.1799999999996162 0 0  0.1849999999996016 0 0  0.189999999999587 0 0  0.1949999999995725 0 0  0.1999999999995579 0 0  0.2049999999995433 0 0  0.2099999999995288 0 0  0.2149999999995142 0 0  0.2199999999994996 0 0  0.224999999999485 0 0  0.2299999999994704 0 0  0.2349999999994558 0 0  0.2399999999994413 0 0  0.2449999999994267 0 0  0.2499999999994121 0 0  0.2549999999993976 0 0  0.259999999999383 0 0  0.2649999999993684 0 0  0.2699999999993538 0 0  0.2749999999993393 0 0  0.2799999999993247 0 0  0.2849999999993101 0 0  0.2899999999992955 0 0  0.2949999999992809 0 0  0.2999999999992664 0 0  0.3049999999992518 0 0  0.3099999999992372 0 0  0.3149999999992227 0 0  0.3199999999992081 0 0  0.3249999999991935 0 0  0.329999999999179 0 0  0.3349999999991644 0 0  0.3399999999991498 0 0  0.3449999999991352 0 0  0.3499999999991207 0 0  0.3549999999991061 0 0  0.3599999999990915 0 0  0.364999999999077 0 0  0.3699999999990624 0 0  0.3749999999990478 0 0  0.3799999999990332 0 0  0.3849999999990187 0 0  0.3899999999990041 0 0  0.3949999999989895 0 0  0.3999999999989749 0 0  0.4049999999989604 0 0  0.4099999999989458 0 0  0.4149999999989312 0 0  0.4199999999989167 0 0  0.4249999999989021 0 0  0.4299999999988875 0 0  0.4349999999988729 0 0  0.4399999999988584 0 0  0.4449999999988438 0 0  0.4499999999988292 0 0  0.4549999999988146 0 0  0.4599999999988 0 0  0.4649999999987854 0 0  0.4699999999987708 0 0  0.4749999999987564 0 0  0.4799999999987418 0 0  0.4849999999987272 0 0  0.4899999999987126 0 0  0.4949999999987019 0 0  0.4999999999986943 0 0  0.5049999999987005 0 0  0.5099999999987098 0 0  0.514999999998723 0 0  0.5199999999987361 0 0  0.5249999999987494 0 0  0.5299999999987626 0 0  0.5349999999987757 0 0  0.5399999999987888 0 0  0.544999999998802 0 0  0.5499999999988152 0 0  0.5549999999988283 0 0  0.5599999999988415 0 0  0.5649999999988546 0 0  0.5699999999988679 0 0  0.574999999998881 0 0  0.5799999999988942 0 0  0.5849999999989073 0 0  0.5899999999989205 0 0  0.5949999999989336 0 0  0.5999999999989468 0 0  0.6049999999989599 0 0  0.6099999999989731 0 0  0.6149999999989864 0 0  0.6199999999989995 0 0  0.6249999999990127 0 0  0.6299999999990258 0 0  0.634999999999039 0 0  0.6399999999990521 0 0  0.6449999999990653 0 0  0.6499999999990784 0 0  0.6549999999990916 0 0  0.6599999999991049 0 0  0.664999999999118 0 0  0.6699999999991312 0 0  0.6749999999991442 0 0  0.6799999999991574 0 0  0.6849999999991706 0 0  0.6899999999991837 0 0  0.6949999999991969 0 0  0.6999999999992101 0 0  0.7049999999992232 0 0  0.7099999999992365 0 0  0.7149999999992497 0 0  0.7199999999992628 0 0  0.724999999999276 0 0  0.7299999999992892 0 0  0.7349999999993022 0 0  0.7399999999993154 0 0  0.7449999999993285 0 0  0.7499999999993417 0 0  0.754999999999355 0 0  0.7599999999993681 0 0  0.7649999999993813 0 0  0.7699999999993945 0 0  0.7749999999994075 0 0  0.7799999999994207 0 0  0.7849999999994339 0 0  0.789999999999447 0 0  0.7949999999994602 0 0  0.7999999999994734 0 0  0.8049999999994866 0 0  0.8099999999994998 0 0  0.8149999999995129 0 0  0.8199999999995261 0 0  0.8249999999995393 0 0  0.8299999999995523 0 0  0.8349999999995655 0 0  0.8399999999995788 0 0  0.8449999999995919 0 0  0.8499999999996051 0 0  0.8549999999996183 0 0  0.8599999999996314 0 0  0.8649999999996446 0 0  0.8699999999996577 0 0  0.8749999999996709 0 0  0.8799999999996841 0 0  0.8849999999996971 0 0  0.8899999999997104 0 0  0.8949999999997236 0 0  0.8999999999997367 0 0  0.9049999999997499 0 0  0.9099999999997631 0 0  0.9149999999997762 0 0  0.9199999999997894 0 0  0.9249999999998026 0 0  0.9299999999998156 0 0  0.9349999999998289 0 0  0.939999999999842 0 0  0.9449999999998552 0 0  0.9499999999998684 0 0  0.9549999999998815 0 0  0.9599999999998947 0 0  0.9649999999999079 0 0  0.969999999999921 0 0  0.9749999999999343 0 0  0.9799999999999475 0 0  0.9849999999999605 0 0  0.9899999999999737 0 0  0.9949999999999868 0 0  1 0.004629629629621038 0  1 0.009259259259238989 0  1 0.01388888888885587 0  1 0.0185185185184723 0  1 0.02314814814808873 0  1 0.02777777777770583 0  1 0.03240740740734689 0  1 0.0370370370369886 0  1 0.04166666666663033 0  1 0.04629629629627208 0  1 0.05092592592591381 0  1 0.06041666666665547 0  1 0.0652777777777554 0  1 0.07013888888885125 0  1 0.07499999999994983 0  1 0.07986111111104839 0  1 0.08472222222214695 0  1 0.08958333333323469 0  1 0.09444444444433597 0  1 0.09930555555545895 0  1 0.1041666666665819 0  1 0.1090277777777076 0  1 0.1138888888888306 0  1 0.118749999999959 0  1 0.1236111111110847 0  1 0.1284722222222077 0  0.995238095238089 0.1333333333333333 0  0.9904761904761719 0.1333333333333333 0  0.9857142857142888 0.1333333333333333 0  0.9809523809523778 0.1333333333333333 0  0.9761904761904948 0.1333333333333333 0  0.9714285714286179 0.1333333333333333 0  0.9666666666667534 0.1333333333333333 0  0.9619047619048208 0.1333333333333333 0  0.9571428571429254 0.1333333333333333 0  0.9523809523809988 0.1333333333333333 0  0.9476190476190879 0.1333333333333333 0  0.9428571428571615 0.1333333333333333 0  0.9380952380952443 0.1333333333333333 0  0.9333333333333333 0.1380952380952311 0  0.9333333333333333 0.1428571428571127 0  0.9333333333333333 0.1476190476190166 0  0.9333333333333333 0.1523809523809082 0  0.9333333333333333 0.1571428571427805 0  0.9333333333333333 0.1619047619046937 0  0.9333333333333333 0.1666666666665745 0  0.9333333333333333 0.1714285714284932 0  0.9333333333333333 0.1761904761904134 0  0.9333333333333333 0.1809523809523275 0  0.9333333333333333 0.185714285714247 0  0.9333333333333333 0.1904761904761665 0  0.9333333333333333 0.1952380952380805 0  0.9380952380952443 0.2 0  0.9428571428571615 0.2 0  0.9476190476190446 0.2 0  0.9523809523809555 0.2 0  0.9571428571428385 0.2 0  0.9619047619047154 0.2 0  0.96666666666658 0.2 0  0.9714285714285126 0.2 0  0.976190476190408 0.2 0  0.9809523809523345 0.2 0  0.9857142857142455 0.2 0  0.9904761904761719 0.2 0  0.995238095238089 0.2 0  1 0.2049382716049228 0  1 0.2098765432098617 0  1 0.2148148148147805 0  1 0.2197530864197075 0  1 0.2246913580246271 0  1 0.2296296296295531 0  1 0.2345679012344705 0  1 0.2395061728393821 0  1 0.244444444444336 0  1 0.2493827160492443 0  1 0.2543209876541471 0  1 0.259259259259105 0  1 0.2641975308640344 0  1 0.2691358024689626 0  1 0.2740740740739138 0  1 0.2790123456788717 0  1 0.2839506172838188 0  1 0.288888888888766 0  1 0.2938271604937239 0  1 0.298765432098671 0  1 0.3037037037036181 0  1 0.3086419753085761 0  1 0.313580246913534 0  1 0.3185185185184727 0  1 0.3234567901234283 0  1 0.3283950617283834 0  0.9949999999999791 0.3333333333333333 0  0.9899999999999584 0.3333333333333333 0  0.9849999999999375 0.3333333333333333 0  0.9799999999999167 0.3333333333333333 0  0.9749999999998958 0.3333333333333333 0  0.9699999999998751 0.3333333333333333 0  0.9649999999998542 0.3333333333333333 0  0.9599999999998334 0.3333333333333333 0  0.9549999999998126 0.3333333333333333 0  0.9499999999997918 0.3333333333333333 0  0.9449999999997709 0.3333333333333333 0  0.9399999999997501 0.3333333333333333 0  0.9349999999997293 0.3333333333333333 0  0.9299999999997085 0.3
[...]
<PointData  Vectors="Displacement"> 
<DataArray  type="Float64"  Name="Displacement"  NumberOfComponents="3" format="ascii">0.0000000000000000e+00 0.0000000000000000e+00 0.0000000000000000e+00  0.0000000000000000e+00 0.0000000000000000e+00 0.0000000000000000e+00  1.8837622148161241e-03 -2.0747094565995014e-03 0.0000000000000000e+00  2.9212460934614631e-03 -2.0043591806253582e-03 0.0000000000000000e+00  4.0707406500728556e-03 -1.2060864714979031e-03 0.0000000000000000e+00  3.7783070191915939e-03 -4.5413625149352886e-04 0.0000000000000000e+00  4.3299377592291083e-03 -1.9930981430986273e-04 0.0000000000000000e+00  4.5640552432950985e-03 -9.6038374464962038e-04 0.0000000000000000e+00  5.1492718129227417e-03 -7.4082426977536953e-04 0.0000000000000000e+00  0.0000000000000000e+00 0.0000000000000000e+00 0.0000000000000000e+00  0.0000000000000000e+00 0.0000000000000000e+00 0.0000000000000000e+00  0.0000000000000000e+00 0.0000000000000000e+00 0.0000000000000000e+00  0.0000000000000000e+00 0.0000000000000000e+00 0.0000000000000000e+00  0.0000000000000000e+00 0.0000000000000000e+00 0.0000000000000000e+00  0.0000000000000000e+00 0.0000000000000000e+00 0.0000000000000000e+00  0.0000000000000000e+00 0.0000000000000000e+00 0.0000000000000000e+00  0.0000000000000000e+00 0.0000000000000000e+00 0.0000000000000000e+00  0.0000000000000000e+00 0.0000000000000000e+00 0.0000000000000000e+00  0.0000000000000000e+00 0.0000000000000000e+00 0.0000000000000000e+00  0.0000000000000000e+00 0.0000000000000000e+00 0.0000000000000000e+00  0.0000000000000000e+00 0.0000000000000000e+00 0.0000000000000000e+00  0.0000000000000000e+00 0.0000000000000000e+00 0.0000000000000000e+00  0.0000000000000000e+00 0.0000000000000000e+00 0.0000000000000000e+00  0.0000000000000000e+00 0.0000000000000000e+00 0.0000000000000000e+00  0.0000000000000000e+00 0.0000000000000000e+00 0.0000000000000000e+00  0.0000000000000000e+00 0.0000000000000000e+00 0.0000000000000000e+00  0.0000000000000000e+00 0.0000000000000000e+00 0.0000000000000000e+00  0.0000000000000000e+00 0.0000000000000000e+00 0.0000000000000000e+00  0.0000000000000000e+00 0.0000000000000000e+00 0.0000000000000000e+00  0.0000000000000000e+00 0.0000000000000000e+00 0.0000000000000000e+00  0.0000000000000000e+00 0.0000000000000000e+00 0.0000000000000000e+00  0.0000000000000000e+00 0.0000000000000000e+00 0.0000000000000000e+00  0.0000000000000000e+00 0.0000000000000000e+00 0.0000000000000000e+00  0.0000000000000000e+00 0.0000000000000000e+00 0.0000000000000000e+00  0.0000000000000000e+00 0.0000000000000000e+00 0.0000000000000000e+00  0.0000000000000000e+00 0.0000000000000000e+00 0.0000000000000000e+00  0.0000000000000000e+00 0.0000000000000000e+00 0.0000000000000000e+00  0.0000000000000000e+00 0.0000000000000000e+00 0.0000000000000000e+00  0.0000000000000000e+00 0.0000000000000000e+00 0.0000000000000000e+00  0.0000000000000000e+00 0.0000000000000000e+00 0.0000000000000000e+00  0.0000000000000000e+00 0.0000000000000000e+00 0.0000000000000000e+00  0.0000000000000000e+00 0.0000000000000000e+00 0.0000000000000000e+00  0.0000000000000000e+00 0.0000000000000000e+00 0.0000000000000000e+00  0.0000000000000000e+00 0.0000000000000000e+00 0.0000000000000000e+00  0.0000000000000000e+00 0.0000000000000000e+00 0.0000000000000000e+00  0.0000000000000000e+00 0.0000000000000000e+00 0.0000000000000000e+00  0.0000000000000000e+00 0.0000000000000000e+00 0.0000000000000000e+00  0.0000000000000000e+00 0.0000000000000000e+00 0.0000000000000000e+00  0.0000000000000000e+00 0.0000000000000000e+00 0.0000000000000000e+00  0.0000000000000000e+00 0.0000000000000000e+00 0.0000000000000000e+00  0.0000000000000000e+00 0.0000000000000000e+00 0.0000000000000000e+00  0.0000000000000000e+00 0.0000000000000000e+00 0.0000000000000000e+00  0.0000000000000000e+00 0.0000000000000000e+00 0.0000000000000000e+00  0.0000000000000000e+00 0.0000000000000000e+00 0.0000000000000000e+00  0.0000000000000000e+00 0.0000000000000000e+00 0.0000000000000000e+00  0.0000000000000000e+00 0.0000000000000000e+00 0.0000000000000000e+00  0.0000000000000000e+00 0.0000000000000000e+00 0.0000000000000000e+00  0.0000000000000000e+00 0.0000000000000000e+00 0.0000000000000000e+00  0.0000000000000000e+00 0.0000000000000000e+00 0.0000000000000000e+00  0.0000000000000000e+00 0.0000000000000000e+00 0.0000000000000000e+00  0.0000000000000000e+00 0.0000000000000000e+00 0.0000000000000000e+00  0.0000000000000000e+00 0.0000000000000000e+00 0.0000000000000000e+00  0.0000000000000000e+00 0.0000000000000000e+00 0.0000000000000000e+00  0.0000000000000000e+00 0.0000000000000000e+00 0.0000000000000000e+00  0.0000000000000000e+00 0.0000000000000000e+00 0.0000000000000000e+00  0.0000000000000000e+00 0.0000000000000000e+00 0.0000000000000000e+00  0.0000000000000000e+00 0.0000000000000000e+00 0.0000000000000000e+00  0.0000000000000000e+00 0.0000000000000000e+00 0.0000000000000000e+00  0.0000000000000000e+00 0.0000000000000000e+00 0.0000000000000000e+00  0.0000000000000000e+00 0.0000000000000000e+00 0.0000000000000000e+00  0.0000000000000000e+00 0.0000000000000000e+00 0.0000000000000000e+00  0.0000000000000000e+00 0.0000000000000000e+00 0.0000000000000000e+00  0.0000000000000000e+00 0.0000000000000000e+00 0.0000000000000000e+00  0.0000000000000000e+00 0.0000000000000000e+00 0.0000000000000000e+00  0.0000000000000000e+00 0.0000000000000000e+00 0.0000000000000000e+00  -2.0152294240462893e-05 -2.0597396577716575e-05 0.0000000000000000e+00  -3.3610298059520579e-05 -4.0086931679224210e-05 0.0000000000000000e+00  -4.3170129794271361e-05 -6.3110040196250608e-05 0.0000000000000000e+00  -4.9550336879086203e-05 -8.8700468389427343e-05 0.0000000000000000e+00  -5.3153702362542432e-05 -1.1633368511425221e-04 0.0000000000000000e+00  -5.4362405086591873e-05 -1.4561876617416665e-04 0.0000000000000000e+00  -5.3454436961970215e-05 -1.7599892606857099e-04 0.0000000000000000e+00  -5.0850440612718433e-05 -2.0748272698983139e-04 0.0000000000000000e+00  -4.6677327698451234e-05 -2.3970461994408089e-04 0.0000000000000000e+00  -4.1259013745425180e-05 -2.7245485464195409e-04 0.0000000000000000e+00  -3.4822794724071727e-05 -3.0606247168966331e-04 0.0000000000000000e+00  -2.7481697239786764e-05 -3.4019099267295326e-04 0.0000000000000000e+00  -1.9320361829567316e-05 -3.7516530114285203e-04 0.0000000000000000e+00  -1.0360235601227481e-05 -4.1096451343558072e-04 0.0000000000000000e+00  -7.3826745683032161e-07 -4.4757057680361165e-04 0.0000000000000000e+00  9.5387769987311087e-06 -4.8515724547853800e-04 0.0000000000000000e+00  2.0422701264794659e-05 -5.2348697566055103e-04 0.0000000000000000e+00  3.1913763098771738e-05 -5.6267230713227736e-04 0.0000000000000000e+00  4.3980930753489129e-05 -6.0277372149467046e-04 0.0000000000000000e+00  5.6674801080381845e-05 -6.4376466942025839e-04 0.0000000000000000e+00  6.9930047570412388e-05 -6.8555195754503096e-04 0.0000000000000000e+00  8.3741786931695463e-05 -7.2801474627220183e-04 0.0000000000000000e+00  9.7991607892280625e-05 -7.7144876920148342e-04 0.0000000000000000e+00  1.1260981561734435e-04 -8.1563079160054013e-04 0.0000000000000000e+00  1.2780216107418456e-04 -8.6068990980036762e-04 0.0000000000000000e+00  1.4338425404111530e-04 -9.0660567523582938e-04 0.0000000000000000e+00  1.5927922117846337e-04 -9.5329488044524127e-04 0.0000000000000000e+00  1.7550160083550410e-04 -1.0008737642360108e-03 0.0000000000000000e+00  1.9203081983941640e-04 -1.0493727325697250e-03 0.0000000000000000e+00  2.0883996129446295e-04 -1.0988541649837005e-03 0.0000000000000000e+00  2.2595885148754059e-04 -1.1493639996782066e-03 0.0000000000000000e+00  2.4343070104503958e-04 -1.2008884870261208e-03 0.0000000000000000e+00  2.6127563915834820e-04 -1.2533442061175271e-03 0.0000000000000000e+00  2.7957308769683582e-04 -1.3067511672348313e-03 0.0000000000000000e+00  2.9843220554282343e-04 -1.3609889383959029e-03 0.0000000000000000e+00  3.1794613953745233e-04 -1.4158518827545521e-03 0.0000000000000000e+00  3.3818018268381989e-04 -1.4710205934633503e-03 0.0000000000000000e+00  3.5908041873202129e-04 -1.5261460695935494e-03 0.0000000000000000e+00  3.8062935731876974e-04 -1.5810768248893368e-03 0.0000000000000000e+00  4.0278528645157027e-04 -1.6355260456467286e-03 0.0000000000000000e+00  4.2545857957774916e-04 -1.6892942720972215e-03 0.0000000000000000e+00  4.4858663398880731e-04 -1.7422217213653144e-03 0.0000000000000000e+00  4.7216198037036054e-04 -1.7941880865277406e-03 0.0000000000000000e+00  4.9618894812382441e-04 -1.8450157647457192e-03 0.0000000000000000e+00  5.2064185510544475e-04 -1.8944784502022318e-03 0.0000000000000000e+00  5.4554690636816840e-04 -1.9425103737393131e-03 0.0000000000000000e+00  5.7097657251901966e-04 -1.9888370054761389e-03 0.0000000000000000e+00  5.9687767865642489e-04 -2.0331832568858230e-03 0.0000000000000000e+00  6.2316285905162055e-04 -2.0752594255683925e-03 0.0000000000000000e+00  6.4971915477593468e-04 -2.1148979990759276e-03 0.0000000000000000e+00  6.7638523671648034e-04 -2.1518478644780869e-03 0.0000000000000000e+00  7.0288007961698338e-04 -2.1860581534067303e-03 0.0000000000000000e+00  7.2910435395249292e-04 -2.2177396391798321e-03 0.0000000000000000e+00  7.5487614829628977e-04 -2.2470680558287119e-03 0.0000000000000000e+00  7.8013176799541617e-04 -2.2743011106930227e-03 0.0000000000000000e+00  8.0476628865814583e-04 -2.2996551768557348e-03 0.0000000000000000e+00  8.2877309527376326e-04 -2.3233222891291517e-03 0.0000000000000000e+00  8.5214442735324187e-04 -2.3457454085375196e-03 0.0000000000000000e+00  8.7492227352922941e-04 -2.3673654950256734e-03 0.0000000000000000e+00  8.9720695368508880e-04 -2.3881034457754534e-03 0.0000000000000000e+00  9.1900314052458681e-04 -2.4082749951605184e-03 0.0000000000000000e+00  9.4028823136348453e-04 -2.4281250439812368e-03 0.0000000000000000e+00  9.6117039081321189e-04 -2.4477519910593333e-03 0.0000000000000000e+00  9.8161854960986963e-04 -2.4671620477308715e-03 0.0000000000000000e+00  1.0016422918174327e-03 -2.4865907051014580e-03 0.0000000000000000e+00  1.0213040770502746e-03 -2.5061973738439497e-03 0.0000000000000000e+00  1.0406276728210024e-03 -2.5261099695346729e-03 0.0000000000000000e+00  1.0596275899476414e-03 -2.5464411626081969e-03 0.0000000000000000e+00  1.0783394994342513e-03 -2.5673187814776806e-03 0.0000000000000000e+00  1.0968014176669025e-03 -2.5888104387703239e-03 0.0000000000000000e+00  1.1149772677781877e-03 -2.6109526235290276e-03 0.0000000000000000e+00  1.1328872104991543e-03 -2.6339493222940239e-03 0.0000000000000000e+00  1.1505677558908630e-03 -2.6579064833897547e-03 0.0000000000000000e+00  1.1680264085102185e-03 -2.6829107092909924e-03 0.0000000000000000e+00  1.1852853927261132e-03 -2.7090574900318258e-03 0.0000000000000000e+00  1.2024047766420517e-03 -2.7364517297545402e-03 0.0000000000000000e+00  1.2194569081163144e-03 -2.7650079664317873e-03 0.0000000000000000e+00  1.2363839457503324e-03 -2.7947826601158400e-03 0.0000000000000000e+00  1.2532199917342434e-03 -2.8258981177365448e-03 0.0000000000000000e+00  1.2699662926535867e-03 -2.8583923743613921e-03 0.0000000000000000e+00  1.2866242293486875e-03 -2.8923046728806115e-03 0.0000000000000000e+00  1.3031926404698053e-03 -2.9276503026832651e-03 0.0000000000000000e+00  1.3196408133073323e-03 -2.9644405555425278e-03 0.0000000000000000e+00  1.3359511524403630e-03 -3.0029240467017676e-03 0.0000000000000000e+00  1.3522594514375555e-03 -3.0432573697398275e-03 0.0000000000000000e+00  1.3686996625552391e-03 -3.0853095698192287e-03 0.0000000000000000e+00  1.3854281273318022e-03 -3.1291852957994024e-03 0.0000000000000000e+00  1.4027313939641241e-03 -3.1748072571889802e-03 0.0000000000000000e+00  1.4210080096612547e-03 -3.2217670696844981e-03 0.0000000000000000e+00  1.4406475960246519e-03 -3.2692702401920714e-03 0.0000000000000000e+00  1.4620288846345401e-03 -3.3164824418639317e-03 0.0000000000000000e+00  1.4858288854639064e-03 -3.3620244811817198e-03 0.0000000000000000e+00  1.5125998430625908e-03 -3.4036114486648006e-03 0.0000000000000000e+00  1.5421497923077910e-03 -3.4402227587467093e-03 0.0000000000000000e+00  1.5726389906486535e-03 -3.4680403813063219e-03 0.0000000000000000e+00  1.6052050941125554e-03 -3.4856423509310812e-03 0.0000000000000000e+00  1.6369904971335184e-03 -3.4937709038076908e-03 0.0000000000000000e+00  1.6664272716777971e-03 -3.4930715618711758e-03 0.0000000000000000e+00  1.6939393809247965e-03 -3.4864278986361449e-03 0.0000000000000000e+00  1.7201308983824468e-03 -3.4740902455186002e-03 0.0000000000000000e+00  1.7456499436595901e-03 -3.4576618335708186e-03 0.0000000000000000e+00  1.7707405276775451e-03 -3.4347902768028559e-03 0.0000000000000000e+00  1.7979994798707369e-03 -3.4036079124626370e-03 0.0000000000000000e+00  1.8250457025811451e-03 -3.3627558986233106e-03 0.0000000000000000e+00  1.8511651980729744e-03 -3.3118065776353892e-03 0.0000000000000000e+00  1.8761290237047166e-03 -3.2520620668154360e-03 0.0000000000000000e+00  1.8994131629899609e-03 -3.1846774340507072e-03 0.0000000000000000e+00  1.9211367553420907e-03 -3.1108488655342535e-03 0.0000000000000000e+00  1.9408474578329307e-03 -3.0318604602480315e-03 0.0000000000000000e+00  1.9588316557254482e-03 -2.9491226545130473e-03 0.0000000000000000e+00  1.9750929016118367e-03 -2.8648028765476787e-03 0.0000000000000000e+00  1.9896139595308405e-03 -2.7790215549529339e-03 0.0000000000000000e+00  2.0026899457136114e-03 -2.6928938681531401e-03 0.0000000000000000e+00  2.0145697509799747e-03 -2.6071299779775567e-03 0.0000000000000000e+00  2.0252756284567892e-03 -2.5224723891193687e-03 0.0000000000000000e+00  2.0350474763497516e-03 -2.4397697176165765e-03 0.0000000000000000e+00  2.0439306880292362e-03 -2.3592819863444427e-03 0.0000000000000000e+00  2.0518728809327514e-03 -2.2818976863196888e-03 0.0000000000000000e+00  2.0592664802386801e-03 -2.2079300941249651e-03 0.0000000000000000e+00  2.0654653615213934e-03 -2.1379610351196943e-03 0.0000000000000000e+00  2.0712816344363267e-03 -2.0721436521963931e-03 0.0000000000000000e+00  2.0755996585337757e-03 -2.0109035925753548e-03 0.0000000000000000e+00  2.0791756637532762e-03 -1.9549751468987868e-03 0.0000000000000000e+00  2.0822225648901255e-03 -1.9044886427755281e-03 0.0000000000000000e+00  2.0850265343083135e-03 -1.8591759180792578e-03 0.0000000000000000e+00  2.0878528675130192e-03 -1.8196320643236407e-03 0.0000000000000000e+00  2.0910588899555522e-03 -1.7848740203679678e-03 0.0000000000000000e+00  2.0945653587388893e-03 -1.7545505180219805e-03 0.0000000000000000e+00  2.0986040825883017e-03 -1.7286176208273214e-03 0.0000000000000000e+00  2.1031994215948619e-03 -1.7061182783339565e-03 0.0000000000000000e+00  2.1083777566671038e-03 -1.6864956962507104e-03 0.0000000000000000e+00  2.1139814946885683e-03 -1.6691176144648710e-03 0.0000000000000000e+00  2.1199924555842073e-03 -1.6535699827637822e-03 0.0000000000000000e+00  2.1263287844021463e-03 -1.6394396799287382e-03 0.0000000000000000e+00  2.1329601394649012e-03 -1.6261808314141522e-03 0.0000000000000000e+00  2.1398185839797902e-03 -1.6134701698478273e-03 0.0000000000000000e+00  2.1467080678075393e-03 -1.6011572187879168e-03 0.0000000000000000e+00  2.1536451839850989e-03 -1.5890537456363107e-03 0.0000000000000000e+00  2.1604365638814172e-03 -1.5773035285996451e-03 0.0000000000000000e+00  2.1670672270822189e-03 -1.5660677998807610e-03 0.0000000000000000e+00  2.1735051564541518e-03 -1.5555010662983905e-03 0.0000000000000000e+00  2.1798543812077279e-03 -1.5457759657425236e-03 0.0000000000000000e+00  2.1860656732503466e-03 -1.5368766167663957e-03 0.0000000000000000e+00  2.1919883950705385e-03 -1.5286729879459872e-03 0.0000000000000000e+00  2.1977481075380304e-03 -1.5216233057769352e-03 0.0000000000000000e+00  2.2031146995133023e-03 -1.5163668867580276e-03 0.0000000000000000e+00  2.2081918272084992e-03 -1.5130050567457001e-03 0.0000000000000000e+00  2.2130371109307062e-03 -1.5116901131907335e-03 0.0000000000000000e+00  2.2175613775580090e-03 -1.5126767332514610e-03 0.0000000000000000e+00  2.2218093184220018e-03 -1.5163113392160747e-03 0.0000000000000000e+00  2.2258278192456471e-03 -1.5227745139639922e-03 0.0000000000000000e+00  2.2296023740018839e-03 -1.5322542490725970e-03 0.0000000000000000e+00  2.2331646303224537e-03 -1.5448635631336700e-03 0.0000000000000000e+00  2.2364624110628034e-03 -1.5607349226718532e-03 0.0000000000000000e+00  2.2395711199798521e-03 -1.5803706925707770e-03 0.0000000000000000e+00  2.2426521600172398e-03 -1.6036353882154615e-03 0.0000000000000000e+00  2.2456627418017214e-03 -1.6305184452773418e-03 0.0000000000000000e+00  2.2487299347020069e-03 -1.6609676747789146e-03 0.0000000000000000e+00  2.2517117438178272e-03 -1.6947486751221000e-03 0.0000000000000000e+00  2.2546966961629489e-03 -1.7320276798774513e-03 0.0000000000000000e+00  2.2577338239856220e-03 -1.7724841371595192e-03 0.0000000000000000e+00  2.2608021150696211e-03 -1.8161422362765048e-03 0.0000000000000000e+00  2.2640505240941033e-03 -1.8626654347788281e-03 0.0000000000000000e+00  2.2675338227194516e-03 -1.9120130171847588e-03 0.0000000000000000e+00  2.2712984337623964e-03 -1.9630983704077738e-03 0.0000000000000000e+00  2.2754627739873532e-03 -2.0154156894884681e-03 0.0000000000000000e+00  2.2801144369968733e-03 -2.0688733533853277e-03 0.0000000000000000e+00  2.2857812801051064e-03 -2.1216108688221448e-03 0.0000000000000000e+00  2.2951528369883254e-03 -2.1685435835066434e-03 0.0000000000000000e+00  2.3837101571765064e-03 -2.1520381796041690e-03 0.0000000000000000e+00  2.4038313707735312e-03 -2.0877659805754612e-03 0.0000000000000000e+00  2.4115275268141623e-03 -2.0167815637630502e-03 0.0000000000000000e+00  2.4163471577505814e-03 -1.9466335052363154e-03 0.0000000000000000e+00  2.4241084692478133e-03 -1.8751445334319566e-03 0.0000000000000000e+00  2.4317345249013789e-03 -1.8055862128899072e-03 0.0000000000000000e+00  2.4379270837216341e-03 -1.7383093719335356e-03 0.0000000000000000e+00  2.4432245202976018e-03 -1.6721484875965697e-03 0.0000000000000000e+00  2.4452760378325450e-03 -1.6063438679016116e-03 0.0000000000000000e+00  2.4438980783302137e-03 -1.5451648660512760e-03 0.0000000000000000e+00  2.4399200325140027e-03 -1.4893655325923553e-03 0.0000000000000000e+00  2.4325782716211647e-03 -1.4380728294856133e-03 0.0000000000000000e+00  2.4207231009866466e-03 -1.3914281325240520e-03 0.0000000000000000e+00  2.4044577709496722e-03 -1.3508805534192387e-03 0.0000000000000000e+00  2.3842449564207562e-03 -1.3176305125924784e-03 0.0000000000000000e+00  2.3603411392443666e-03 -1.2920125627743271e-03 0.0000000000000000e+00  2.3330632558856293e-03 -1.2742179111975966e-03 0.0000000000000000e+00  2.3024791083171791e-03 -1.2644504037005249e-03 0.0000000000000000e+00  2.2682179430157517e-03 -1.2626901371529291e-03 0.0000000000000000e+00  2.2298262621672027e-03 -1.2704957111319703e-03 0.0000000000000000e+00  2.1877147609877189e-03 -1.2887454017786377e-03 0.0000000000000000e+00  2.1423248504658723e-03 -1.3187845680036269e-03 0.0000000000000000e+00  2.0947577435977281e-03 -1.3620705958707015e-03 0.0000000000000000e+00  2.0472717463205707e-03 -1.4192582753586411e-03 0.0000000000000000e+00  2.0014493855563167e-03 -1.4908515206670356e-03 0.0000000000000000e+00  1.9611712896210904e-03 -1.5749025713431243e-03 0.0000000000000000e+00  1.9254866208052684e-03 -1.6716198782265005e-03 0.0000000000000000e+00  1.8984635795713471e-03 -1.7755688429848967e-03 0.0000000000000000e+00  1.8833548116942696e-03 -1.8865478978365639e-03 0.0000000000000000e+00  1.8833868814927526e-03 -1.9815476649193394e-03 0.0000000000000000e+00  1.9683630498951036e-03 -2.0718796859120494e-03 0.0000000000000000e+00  2.0430653735461521e-03 -2.0703431638329191e-03 0.0000000000000000e+00  2.1131504283184235e-03 -2.0703753938678461e-03 0.0000000000000000e+00  2.1830209868054506e-03 -2.0704251674894996e-03 0.0000000000000000e+00  2.2531510203519368e-03 -2.0705264357021753e-03 0.0000000000000000e+00  2.3237830781268464e-03 -2.0715087674942970e-03 0.0000000000000000e+00  2.4277223118008631e-03 -2.0729367552623770e-03 0.