<?xml version="1.0"?>
<VTKFile type="UnstructuredGrid"  version="0.1"  >
<UnstructuredGrid>
<Piece  NumberOfPoints="16065" NumberOfCells="31592">
<Points>
<DataArray  type="Float64"  NumberOfComponents="3"  format="ascii">0 0.3333333333333333 0  0 0 0  1 0 0  1 0.05555555555555555 0  1 0.1333333333333333 0  0.9333333333333333 0.1333333333333333 0  0.9333333333333333 0.2 0  1 0.2 0  1 0.3333333333333333 0  0 0.3283582089552355 0  0 0.3233830845771466 0  0 0.3184079601990478 0  0 0.3134328358209529 0  0 0.3084577114428612 0  0 0.3034825870647574 0  0 0.2985074626866487 0  0 0.2935323383085401 0  0 0.2885572139304335 0  0 0.2835820895523445 0  0 0.2786069651742469 0  0 0.2736318407961489 0  0 0.2686567164180402 0  0 0.2636815920399506 0  0 0.2587064676618518 0  0 0.2537313432837577 0  0 0.2487562189056677 0  0 0.2437810945275751 0  0 0.2388059701494822 0  0 0.233830845771385 0  0 0.228855721393291 0  0 0.2238805970151982 0  0 0.2189054726370999 0  0 0.213930348259007 0  0 0.2089552238809128 0  0 0.2039800995028158 0  0 0.199004975124723 0  0 0.1940298507466273 0  0 0.1890547263685318 0  0 0.1840796019904389 0  0 0.1791044776123418 0  0 0.1741293532342478 0  0 0.1691542288561549 0  0 0.1641791044780463 0  0 0.1592039800999219 0  0 0.1542288557217986 0  0 0.1492537313436784 0  0 0.144278606965554 0  0 0.1393034825874322 0  0 0.1343283582093106 0  0 0.1293532338311862 0  0 0.1243781094530658 0  0 0.1194029850749427 0  0 0.1144278606968183 0  0 0.1094527363186993 0  0 0.1044776119405749 0  0 0.09950248756245161 0  0 0.09452736318433147 0  0 0.08955223880620702 0  0 0.08457711442808519 0  0 0.07960199004996127 0  0 0.07462686567183563 0  0 0.06965174129371338 0  0 0.0646766169155949 0  0 0.05970149253746632 0  0 0.05472636815934701 0  0 0.04975124378122736 0  0 0.04477611940309911 0  0 0.03980099502498063 0  0 0.03482587064685805 0  0 0.02985074626873274 0  0 0.02487562189061426 0  0 0.01990049751248874 0  0 0.01492537313436632 0  0 0.009950248756247781 0  0 0.004975124378119478 0  0.00499999999999053 0 0  0.009999999999981104 0 0  0.01499999999997174 0 0  0.01999999999996237 0 0  0.02499999999995287 0 0  0.02999999999994307 0 0  0.03499999999993262 0 0  0.03999999999992186 0 0  0.04499999999991076 0 0  0.04999999999989966 0 0  0.05499999999988862 0 0  0.05999999999987837 0 0  0.06499999999986901 0 0  0.06999999999986051 0 0  0.07499999999985282 0 0  0.07999999999984518 0 0  0.08499999999983754 0 0  0.0899999999998299 0 0  0.09499999999982227 0 0  0.09999999999981463 0 0  0.104999999999807 0 0  0.1099999999997994 0 0  0.1149999999997918 0 0  0.1199999999997832 0 0  0.1249999999997738 0 0  0.1299999999997609 0 0  0.1349999999997473 0 0  0.1399999999997328 0 0  0.1449999999997182 0 0  0.1499999999997036 0 0  0.1549999999996891 0 0  0.1599999999996745 0 0  0.1649999999996599 0 0  0.1699999999996453 0 0  0.1749999999996308 0 0  0.1799999999996162 0 0  0.1849999999996016 0 0  0.189999999999587 0 0  0.1949999999995725 0 0  0.1999999999995579 0 0  0.2049999999995433 0 0  0.2099999999995288 0 0  0.2149999999995142 0 0  0.2199999999994996 0 0  0.224999999999485 0 0  0.2299999999994704 0 0  0.2349999999994558 0 0  0.2399999999994413 0 0  0.2449999999994267 0 0  0.2499999999994121 0 0  0.2549999999993976 0 0  0.259999999999383 0 0  0.2649999999993684 0 0  0.2699999999993538 0 0  0.2749999999993393 0 0  0.2799999999993247 0 0  0.2849999999993101 0 0  0.2899999999992955 0 0  0.2949999999992809 0 0  0.2999999999992664 0 0  0.3049999999992518 0 0  0.3099999999992372 0 0  0.3149999999992227 0 0  0.3199999999992081 0 0  0.3249999999991935 0 0  0.329999999999179 0 0  0.3349999999991644 0 0  0.3399999999991498 0 0  0.3449999999991352 0 0  0.3499999999991207 0 0  0.3549999999991061 0 0  0.3599999999990915 0 0  0.364999999999077 0 0  0.3699999999990624 0 0  0.3749999999990478 0 0  0.3799999999990332 0 0  0.3849999999990187 0 0  0.3899999999990041 0 0  0.3949999999989895 0 0  0.3999999999989749 0 0  0.4049999999989604 0 0  0.4099999999989458 0 0  0.4149999999989312 0 0  0.4199999999989167 0 0  0.4249999999989021 0 0  0.4299999999988875 0 0  0.4349999999988729 0 0  0.4399999999988584 0 0  0.4449999999988438 0 0  0.4499999999988292 0 0  0.4549999999988146 0 0  0.4599999999988 0 0  0.4649999999987854 0 0  0.4699999999987708 0 0  0.4749999999987564 0 0  0.4799999999987418 0 0  0.4849999999987272 0 0  0.4899999999987126 0 0  0.4949999999987019 0 0  0.4999999999986943 0 0  0.5049999999987005 0 0  0.5099999999987098 0 0  0.514999999998723 0 0  0.5199999999987361 0 0  0.5249999999987494 0 0  0.5299999999987626 0 0  0.5349999999987757 0 0  0.5399999999987888 0 0  0.544999999998802 0 0  0.5499999999988152 0 0  0.5549999999988283 0 0  0.5599999999988415 0 0  0.5649999999988546 0 0  0.5699999999988679 0 0  0.574999999998881 0 0  0.5799999999988942 0 0  0.5849999999989073 0 0  0.5899999999989205 0 0  0.5949999999989336 0 0  0.5999999999989468 0 0  0.6049999999989599 0 0  0.6099999999989731 0 0  0.6149999999989864 0 0  0.6199999999989995 0 0  0.6249999999990127 0 0  0.6299999999990258 0 0  0.634999999999039 0 0  0.6399999999990521 0 0  0.6449999999990653 0 0  0.6499999999990784 0 0  0.6549999999990916 0 0  0.6599999999991049 0 0  0.664999999999118 0 0  0.6699999999991312 0 0  0.6749999999991442 0 0  0.6799999999991574 0 0  0.6849999999991706 0 0  0.6899999999991837 0 0  0.6949999999991969 0 0  0.6999999999992101 0 0  0.7049999999992232 0 0  0.7099999999992365 0 0  0.7149999999992497 0 0  0.7199999999992628 0 0  0.724999999999276 0 0  0.7299999999992892 0 0  0.7349999999993022 0 0  0.7399999999993154 0 0  0.7449999999993285 0 0  0.7499999999993417 0 0  0.754999999999355 0 0  0.7599999999993681 0 0  0.7649999999993813 0 0  0.7699999999993945 0 0  0.7749999999994075 0 0  0.7799999999994207 0 0  0.7849999999994339 0 0  0.789999999999447 0 0  0.7949999999994602 0 0  0.7999999999994734 0 0  0.8049999999994866 0 0  0.8099999999994998 0 0  0.8149999999995129 0 0  0.8199999999995261 0 0  0.8249999999995393 0 0  0.8299999999995523 0 0  0.8349999999995655 0 0  0.8399999999995788 0 0  0.8449999999995919 0 0  0.8499999999996051 0 0  0.8549999999996183 0 0  0.8599999999996314 0 0  0.8649999999996446 0 0  0.8699999999996577 0 0  0.8749999999996709 0 0  0.8799999999996841 0 0  0.8849999999996971 0 0  0.8899999999997104 0 0  0.8949999999997236 0 0  0.8999999999997367 0 0  0.9049999999997499 0 0  0.9099999999997631 0 0  0.9149999999997762 0 0  0.9199999999997894 0 0  0.9249999999998026 0 0  0.9299999999998156 0 0  0.9349999999998289 0 0  0.939999999999842 0 0  0.9449999999998552 0 0  0.9499999999998684 0 0  0.9549999999998815 0 0  0.9599999999998947 0 0  0.9649999999999079 0 0  0.969999999999921 0 0  0.9749999999999343 0 0  0.9799999999999475 0 0  0.9849999999999605 0 0  0.9899999999999737 0 0  0.9949999999999868 0 0  1 0.004629629629621038 0  1 0.009259259259238989 0  1 0.01388888888885587 0  1 0.0185185185184723 0  1 0.02314814814808873 0  1 0.02777777777770583 0  1 0.03240740740734689 0  1 0.0370370370369886 0  1 0.04166666666663033 0  1 0.04629629629627208 0  1 0.05092592592591381 0  1 0.06041666666665547 0  1 0.0652777777777554 0  1 0.07013888888885125 0  1 0.07499999999994983 0  1 0.07986111111104839 0  1 0.08472222222214695 0  1 0.08958333333323469 0  1 0.09444444444433597 0  1 0.09930555555545895 0  1 0.1041666666665819 0  1 0.1090277777777076 0  1 0.1138888888888306 0  1 0.118749999999959 0  1 0.1236111111110847 0  1 0.1284722222222077 0  0.995238095238089 0.1333333333333333 0  0.9904761904761719 0.1333333333333333 0  0.9857142857142888 0.1333333333333333 0  0.9809523809523778 0.1333333333333333 0  0.9761904761904948 0.1333333333333333 0  0.9714285714286179 0.1333333333333333 0  0.9666666666667534 0.1333333333333333 0  0.9619047619048208 0.1333333333333333 0  0.9571428571429254 0.1333333333333333 0  0.9523809523809988 0.1333333333333333 0  0.9476190476190879 0.1333333333333333 0  0.9428571428571615 0.1333333333333333 0  0.9380952380952443 0.1333333333333333 0  0.9333333333333333 0.1380952380952311 0  0.9333333333333333 0.1428571428571127 0  0.9333333333333333 0.1476190476190166 0  0.9333333333333333 0.1523809523809082 0  0.9333333333333333 0.1571428571427805 0  0.9333333333333333 0.1619047619046937 0  0.9333333333333333 0.1666666666665745 0  0.9333333333333333 0.1714285714284932 0  0.9333333333333333 0.1761904761904134 0  0.9333333333333333 0.1809523809523275 0  0.9333333333333333 0.185714285714247 0  0.9333333333333333 0.1904761904761665 0  0.9333333333333333 0.1952380952380805 0  0.9380952380952443 0.2 0  0.9428571428571615 0.2 0  0.9476190476190446 0.2 0  0.9523809523809555 0.2 0  0.9571428571428385 0.2 0  0.9619047619047154 0.2 0  0.96666666666658 0.2 0  0.9714285714285126 0.2 0  0.976190476190408 0.2 0  0.9809523809523345 0.2 0  0.9857142857142455 0.2 0  0.9904761904761719 0.2 0  0.995238095238089 0.2 0  1 0.2049382716049228 0  1 0.2098765432098617 0  1 0.2148148148147805 0  1 0.2197530864197075 0  1 0.2246913580246271 0  1 0.2296296296295531 0  1 0.2345679012344705 0  1 0.2395061728393821 0  1 0.244444444444336 0  1 0.2493827160492443 0  1 0.2543209876541471 0  1 0.259259259259105 0  1 0.2641975308640344 0  1 0.2691358024689626 0  1 0.2740740740739138 0  1 0.2790123456788717 0  1 0.2839506172838188 0  1 0.288888888888766 0  1 0.2938271604937239 0  1 0.298765432098671 0  1 0.3037037037036181 0  1 0.3086419753085761 0  1 0.313580246913534 0  1 0.3185185185184727 0  1 0.3234567901234283 0  1 0.3283950617283834 0  0.9949999999999791 0.3333333333333333 0  0.9899999999999584 0.3333333333333333 0  0.9849999999999375 0.3333333333333333 0  0.9799999999999167 0.3333333333333333 0  0.9749999999998958 0.3333333333333333 0  0.9699999999998751 0.3333333333333333 0  0.9649999999998542 0.3333333333333333 0  0.9599999999998334 0.3333333333333333 0  0.9549999999998126 0.3333333333333333 0  0.9499999999997918 0.3333333333333333 0  0.9449999999997709 0.3333333333333333 0  0.9399999999997501 0.3333333333333333 0  0.9349999999997293 0.3333333333333333 0  0.9299999999997085 0.3
[...]
<PointData  Vectors="Displacement"> 
<DataArray  type="Float64"  Name="Displacement"  NumberOfComponents="3" format="ascii">0.0000000000000000e+00 0.0000000000000000e+00 0.0000000000000000e+00  0.0000000000000000e+00 0.0000000000000000e+00 0.0000000000000000e+00  2.3874027071801905e-03 -2.5289764785108547e-03 0.0000000000000000e+00  3.6796113605934338e-03 -2.4443539744594739e-03 0.0000000000000000e+00  5.1700925136504428e-03 -1.4674938332554033e-03 0.0000000000000000e+00  4.8124839687322908e-03 -4.8150286457896368e-04 0.0000000000000000e+00  5.5380370815385103e-03 -1.6308433812295148e-04 0.0000000000000000e+00  5.8246160964324856e-03 -1.1615289169942230e-03 0.0000000000000000e+00  6.6367446991477284e-03 -8.9819499677236869e-04 0.0000000000000000e+00  0.0000000000000000e+00 0.0000000000000000e+00 0.0000000000000000e+00  0.0000000000000000e+00 0.0000000000000000e+00 0.0000000000000000e+00  0.0000000000000000e+00 0.0000000000000000e+00 0.0000000000000000e+00  0.0000000000000000e+00 0.0000000000000000e+00 0.0000000000000000e+00  0.0000000000000000e+00 0.0000000000000000e+00 0.0000000000000000e+00  0.0000000000000000e+00 0.0000000000000000e+00 0.0000000000000000e+00  0.0000000000000000e+00 0.0000000000000000e+00 0.0000000000000000e+00  0.0000000000000000e+00 0.0000000000000000e+00 0.0000000000000000e+00  0.0000000000000000e+00 0.0000000000000000e+00 0.0000000000000000e+00  0.0000000000000000e+00 0.0000000000000000e+00 0.0000000000000000e+00  0.0000000000000000e+00 0.0000000000000000e+00 0.0000000000000000e+00  0.0000000000000000e+00 0.0000000000000000e+00 0.0000000000000000e+00  0.0000000000000000e+00 0.0000000000000000e+00 0.0000000000000000e+00  0.0000000000000000e+00 0.0000000000000000e+00 0.0000000000000000e+00  0.0000000000000000e+00 0.0000000000000000e+00 0.0000000000000000e+00  0.0000000000000000e+00 0.0000000000000000e+00 0.0000000000000000e+00  0.0000000000000000e+00 0.0000000000000000e+00 0.0000000000000000e+00  0.0000000000000000e+00 0.0000000000000000e+00 0.0000000000000000e+00  0.0000000000000000e+00 0.0000000000000000e+00 0.0000000000000000e+00  0.0000000000000000e+00 0.0000000000000000e+00 0.0000000000000000e+00  0.0000000000000000e+00 0.0000000000000000e+00 0.0000000000000000e+00  0.0000000000000000e+00 0.0000000000000000e+00 0.0000000000000000e+00  0.0000000000000000e+00 0.0000000000000000e+00 0.0000000000000000e+00  0.0000000000000000e+00 0.0000000000000000e+00 0.0000000000000000e+00  0.0000000000000000e+00 0.0000000000000000e+00 0.0000000000000000e+00  0.0000000000000000e+00 0.0000000000000000e+00 0.0000000000000000e+00  0.0000000000000000e+00 0.0000000000000000e+00 0.0000000000000000e+00  0.0000000000000000e+00 0.0000000000000000e+00 0.0000000000000000e+00  0.0000000000000000e+00 0.0000000000000000e+00 0.0000000000000000e+00  0.0000000000000000e+00 0.0000000000000000e+00 0.0000000000000000e+00  0.0000000000000000e+00 0.0000000000000000e+00 0.0000000000000000e+00  0.0000000000000000e+00 0.0000000000000000e+00 0.0000000000000000e+00  0.0000000000000000e+00 0.0000000000000000e+00 0.0000000000000000e+00  0.0000000000000000e+00 0.0000000000000000e+00 0.0000000000000000e+00  0.0000000000000000e+00 0.0000000000000000e+00 0.0000000000000000e+00  0.0000000000000000e+00 0.0000000000000000e+00 0.0000000000000000e+00  0.0000000000000000e+00 0.0000000000000000e+00 0.0000000000000000e+00  0.0000000000000000e+00 0.0000000000000000e+00 0.0000000000000000e+00  0.0000000000000000e+00 0.0000000000000000e+00 0.0000000000000000e+00  0.0000000000000000e+00 0.0000000000000000e+00 0.0000000000000000e+00  0.0000000000000000e+00 0.0000000000000000e+00 0.0000000000000000e+00  0.0000000000000000e+00 0.0000000000000000e+00 0.0000000000000000e+00  0.0000000000000000e+00 0.0000000000000000e+00 0.0000000000000000e+00  0.0000000000000000e+00 0.0000000000000000e+00 0.0000000000000000e+00  0.0000000000000000e+00 0.0000000000000000e+00 0.0000000000000000e+00  0.0000000000000000e+00 0.0000000000000000e+00 0.0000000000000000e+00  0.0000000000000000e+00 0.0000000000000000e+00 0.0000000000000000e+00  0.0000000000000000e+00 0.0000000000000000e+00 0.0000000000000000e+00  0.0000000000000000e+00 0.0000000000000000e+00 0.0000000000000000e+00  0.0000000000000000e+00 0.0000000000000000e+00 0.0000000000000000e+00  0.0000000000000000e+00 0.0000000000000000e+00 0.0000000000000000e+00  0.0000000000000000e+00 0.0000000000000000e+00 0.0000000000000000e+00  0.0000000000000000e+00 0.0000000000000000e+00 0.0000000000000000e+00  0.0000000000000000e+00 0.0000000000000000e+00 0.0000000000000000e+00  0.0000000000000000e+00 0.0000000000000000e+00 0.0000000000000000e+00  0.0000000000000000e+00 0.0000000000000000e+00 0.0000000000000000e+00  0.0000000000000000e+00 0.0000000000000000e+00 0.0000000000000000e+00  0.0000000000000000e+00 0.0000000000000000e+00 0.0000000000000000e+00  0.0000000000000000e+00 0.0000000000000000e+00 0.0000000000000000e+00  0.0000000000000000e+00 0.0000000000000000e+00 0.0000000000000000e+00  0.0000000000000000e+00 0.0000000000000000e+00 0.0000000000000000e+00  0.0000000000000000e+00 0.0000000000000000e+00 0.0000000000000000e+00  0.0000000000000000e+00 0.0000000000000000e+00 0.0000000000000000e+00  0.0000000000000000e+00 0.0000000000000000e+00 0.0000000000000000e+00  0.0000000000000000e+00 0.0000000000000000e+00 0.0000000000000000e+00  0.0000000000000000e+00 0.0000000000000000e+00 0.0000000000000000e+00  -2.7564816817249376e-05 -2.7342857091936561e-05 0.0000000000000000e+00  -4.6461926579996365e-05 -5.3098181454843913e-05 0.0000000000000000e+00  -6.0358255427752734e-05 -8.3734594881914841e-05 0.0000000000000000e+00  -7.0128843773765122e-05 -1.1799889759647354e-04 0.0000000000000000e+00  -7.6256761569516132e-05 -1.5516417042800369e-04 0.0000000000000000e+00  -7.9220691435822406e-05 -1.9465605438345418e-04 0.0000000000000000e+00  -7.9376775899760383e-05 -2.3569145671112644e-04 0.0000000000000000e+00  -7.7285870035690278e-05 -2.7823449566109038e-04 0.0000000000000000e+00  -7.3105761714415324e-05 -3.2172744835229263e-04 0.0000000000000000e+00  -6.7271791686678400e-05 -3.6591163554545433e-04 0.0000000000000000e+00  -6.0082271710285468e-05 -4.1117200732708009e-04 0.0000000000000000e+00  -5.1683143903289919e-05 -4.5706847388093713e-04 0.0000000000000000e+00  -4.2219971248432114e-05 -5.0401705037794264e-04 0.0000000000000000e+00  -3.1707822675781420e-05 -5.5195567689429151e-04 0.0000000000000000e+00  -2.0316263480923420e-05 -6.0089386385646132e-04 0.0000000000000000e+00  -8.0394935604272936e-06 -6.5102511529112968e-04 0.0000000000000000e+00  5.0584734665153298e-06 -7.0204918617518763e-04 0.0000000000000000e+00  1.8980803894652338e-05 -7.5410768072820629e-04 0.0000000000000000e+00  3.3691869247705343e-05 -8.0725644918630795e-04 0.0000000000000000e+00  4.9252953836114769e-05 -8.6145503316752202e-04 0.0000000000000000e+00  6.5580894677870789e-05 -9.1657905910758758e-04 0.0000000000000000e+00  8.2668805321998868e-05 -9.7247699390058055e-04 0.0000000000000000e+00  1.0036657342590526e-04 -1.0295088957387559e-03 0.0000000000000000e+00  1.1858664767746511e-04 -1.0873927634074776e-03 0.0000000000000000e+00  1.3757906918251118e-04 -1.1462917350217416e-03 0.0000000000000000e+00  1.5710952932223874e-04 -1.2061660411157695e-03 0.0000000000000000e+00  1.7708187710135904e-04 -1.2669281767470593e-03 0.0000000000000000e+00  1.9750934699351686e-04 -1.3287205628143858e-03 0.0000000000000000e+00  2.1836257250168727e-04 -1.3915851885503113e-03 0.0000000000000000e+00  2.3960295409458491e-04 -1.4556039271555754e-03 0.0000000000000000e+00  2.6126273596874125e-04 -1.5208415087989554e-03 0.0000000000000000e+00  2.8338934559265876e-04 -1.5872878069225322e-03 0.0000000000000000e+00  3.0600082971732627e-04 -1.6548528319646973e-03 0.0000000000000000e+00  3.2918972257351997e-04 -1.7235765781659436e-03 0.0000000000000000e+00  3.5308494612417882e-04 -1.7933290875076079e-03 0.0000000000000000e+00  3.7780042878595148e-04 -1.8638775398164391e-03 0.0000000000000000e+00  4.0341863710575390e-04 -1.9348453997921164e-03 0.0000000000000000e+00  4.2987716677272427e-04 -2.0058179795069998e-03 0.0000000000000000e+00  4.5716060426825611e-04 -2.0766203876627707e-03 0.0000000000000000e+00  4.8522414795797766e-04 -2.1469036920218000e-03 0.0000000000000000e+00  5.1396299235817878e-04 -2.2164217361940858e-03 0.0000000000000000e+00  5.4330414259510932e-04 -2.2849740616410438e-03 0.0000000000000000e+00  5.7324147668993150e-04 -2.3524059062299102e-03 0.0000000000000000e+00  6.0378107776836506e-04 -2.4184876780515155e-03 0.0000000000000000e+00  6.3488736900229529e-04 -2.4829313285657209e-03 0.0000000000000000e+00  6.6658886004471326e-04 -2.5456494775594027e-03 0.0000000000000000e+00  6.9896852262677791e-04 -2.6062984027887212e-03 0.0000000000000000e+00  7.3195272052316567e-04 -2.6645369519872277e-03 0.0000000000000000e+00  7.6542586638480247e-04 -2.7200112102242200e-03 0.0000000000000000e+00  7.9924335894712771e-04 -2.7725217495737048e-03 0.0000000000000000e+00  8.3320272881518204e-04 -2.8217639313431026e-03 0.0000000000000000e+00  8.6695368930374793e-04 -2.8676826297445572e-03 0.0000000000000000e+00  9.0037280976922192e-04 -2.9105482689574893e-03 0.0000000000000000e+00  9.3323663658991820e-04 -2.9505858972680207e-03 0.0000000000000000e+00  9.6546775649793961e-04 -2.9881183533039244e-03 0.0000000000000000e+00  9.9693829783709044e-04 -3.0234141207413491e-03 0.0000000000000000e+00  1.0276395058738295e-03 -3.0567096445572261e-03 0.0000000000000000e+00  1.0575591249507934e-03 -3.0885615497402061e-03 0.0000000000000000e+00  1.0867513308886086e-03 -3.1195197717682832e-03 0.0000000000000000e+00  1.1153405292365689e-03 -3.1494852636743350e-03 0.0000000000000000e+00  1.1433318228124994e-03 -3.1788531492844053e-03 0.0000000000000000e+00  1.1706979893426439e-03 -3.2079333950213122e-03 0.0000000000000000e+00  1.1975774711044437e-03 -3.2368452468547301e-03 0.0000000000000000e+00  1.2239311152158483e-03 -3.2655945960913366e-03 0.0000000000000000e+00  1.2497728521012417e-03 -3.2944754856282883e-03 0.0000000000000000e+00  1.2751841496687162e-03 -3.3236853087171853e-03 0.0000000000000000e+00  1.3001967532268784e-03 -3.3533795339360439e-03 0.0000000000000000e+00  1.3248306506342597e-03 -3.3836952666209687e-03 0.0000000000000000e+00  1.3491336200392669e-03 -3.4147874202828865e-03 0.0000000000000000e+00  1.3731567940550912e-03 -3.4467318735271926e-03 0.0000000000000000e+00  1.3968547307389384e-03 -3.4795650309391753e-03 0.0000000000000000e+00  1.4202551542297254e-03 -3.5135371938060421e-03 0.0000000000000000e+00  1.4434057163311481e-03 -3.5487721722061000e-03 0.0000000000000000e+00  1.4663160950220717e-03 -3.5853692285633949e-03 0.0000000000000000e+00  1.4890150351276009e-03 -3.6234392105776929e-03 0.0000000000000000e+00  1.5115802861312743e-03 -3.6631049289580146e-03 0.0000000000000000e+00  1.5341048640482200e-03 -3.7042422655755615e-03 0.0000000000000000e+00  1.5565134058158415e-03 -3.7469124873947329e-03 0.0000000000000000e+00  1.5788481774096849e-03 -3.7912633957993243e-03 0.0000000000000000e+00  1.6011080733106947e-03 -3.8373330350101416e-03 0.0000000000000000e+00  1.6232916001609559e-03 -3.8851646358117374e-03 0.0000000000000000e+00  1.6453936995432601e-03 -3.9347690628631238e-03 0.0000000000000000e+00  1.6673704695741314e-03 -3.9861549764787707e-03 0.0000000000000000e+00  1.6891963185987225e-03 -4.0396457749378081e-03 0.0000000000000000e+00  1.7110447661768345e-03 -4.0954484078621917e-03 0.0000000000000000e+00  1.7330937979896102e-03 -4.1533895150387854e-03 0.0000000000000000e+00  1.7555542449463016e-03 -4.2136024688537556e-03 0.0000000000000000e+00  1.7788019854240620e-03 -4.2759807338494946e-03 0.0000000000000000e+00  1.8033723623203254e-03 -4.3399800467123278e-03 0.0000000000000000e+00  1.8297857937775550e-03 -4.4045304170239330e-03 0.0000000000000000e+00  1.8585506455175880e-03 -4.4685069757500655e-03 0.0000000000000000e+00  1.8905652806991238e-03 -4.5300573676581744e-03 0.0000000000000000e+00  1.9265665047233020e-03 -4.5861251334447231e-03 0.0000000000000000e+00  1.9662910036624313e-03 -4.6353211908197363e-03 0.0000000000000000e+00  2.0072434616719018e-03 -4.6725562686615266e-03 0.0000000000000000e+00  2.0509547314448442e-03 -4.6959383917074826e-03 0.0000000000000000e+00  2.0935805827363096e-03 -4.7064872055517975e-03 0.0000000000000000e+00  2.1330336788033997e-03 -4.7050907668466551e-03 0.0000000000000000e+00  2.1698855004809066e-03 -4.6956266514397195e-03 0.0000000000000000e+00  2.2049581273960186e-03 -4.6784348980541081e-03 0.0000000000000000e+00  2.2391268208652166e-03 -4.6556494178595304e-03 0.0000000000000000e+00  2.2727158751183114e-03 -4.6241336603532780e-03 0.0000000000000000e+00  2.3091988480521590e-03 -4.5813847966799295e-03 0.0000000000000000e+00  2.3453795395058873e-03 -4.5255847242871685e-03 0.0000000000000000e+00  2.3802998631509880e-03 -4.4561849835615275e-03 0.0000000000000000e+00  2.4136515640414014e-03 -4.3749307952061509e-03 0.0000000000000000e+00  2.4447236480614177e-03 -4.2833966165214572e-03 0.0000000000000000e+00  2.4736899176054203e-03 -4.1832014030991332e-03 0.0000000000000000e+00  2.4999439039885859e-03 -4.0760632538351209e-03 0.0000000000000000e+00  2.5238767561542390e-03 -3.9638673491832139e-03 0.0000000000000000e+00  2.5454857160962952e-03 -3.8494948831714381e-03 0.0000000000000000e+00  2.5647451017457722e-03 -3.7331314073707897e-03 0.0000000000000000e+00  2.5820407946480521e-03 -3.6162729074407851e-03 0.0000000000000000e+00  2.5976937119403408e-03 -3.4998974057069039e-03 0.0000000000000000e+00  2.6117366977937892e-03 -3.3850170567325741e-03 0.0000000000000000e+00  2.6244744502165202e-03 -3.2727776708955606e-03 0.0000000000000000e+00  2.6359698755094602e-03 -3.1635793530317576e-03 0.0000000000000000e+00  2.6461511830884882e-03 -3.0585972598393255e-03 0.0000000000000000e+00  2.6555389602925150e-03 -2.9583035953749050e-03 0.0000000000000000e+00  2.6632899187101051e-03 -2.8634616415091009e-03 0.0000000000000000e+00  2.6705362032663862e-03 -2.7742892846455204e-03 0.0000000000000000e+00  2.6757425052402698e-03 -2.6913504576560900e-03 0.0000000000000000e+00  2.6799734905215622e-03 -2.6155902157723480e-03 0.0000000000000000e+00  2.6835673888675094e-03 -2.5472048246322158e-03 0.0000000000000000e+00  2.6869080320093843e-03 -2.4857715767785510e-03 0.0000000000000000e+00  2.6903001611370803e-03 -2.4320756271761618e-03 0.0000000000000000e+00  2.6942336595788406e-03 -2.3848219613490000e-03 0.0000000000000000e+00  2.6985649928142367e-03 -2.3435381052492872e-03 0.0000000000000000e+00  2.7036224704384852e-03 -2.3081642318094429e-03 0.0000000000000000e+00  2.7094426610643051e-03 -2.2773981526444326e-03 0.0000000000000000e+00  2.7160643761196548e-03 -2.2504929385732705e-03 0.0000000000000000e+00  2.7232675987291966e-03 -2.2265844714463336e-03 0.0000000000000000e+00  2.7310219746671631e-03 -2.2051088433011723e-03 0.0000000000000000e+00  2.7392184033032609e-03 -2.1855108985559925e-03 0.0000000000000000e+00  2.7478090436918903e-03 -2.1670637558229480e-03 0.0000000000000000e+00  2.7567016851867297e-03 -2.1493467878347921e-03 0.0000000000000000e+00  2.7656421845190962e-03 -2.1321286935792674e-03 0.0000000000000000e+00  2.7746469060550821e-03 -2.1151741849020946e-03 0.0000000000000000e+00  2.7834659110992067e-03 -2.0986401336015852e-03 0.0000000000000000e+00  2.7920748677573927e-03 -2.0827433777650902e-03 0.0000000000000000e+00  2.8004338306260135e-03 -2.0676645612081827e-03 0.0000000000000000e+00  2.8086670083799122e-03 -2.0536220890897431e-03 0.0000000000000000e+00  2.8167074659858236e-03 -2.0406137045437152e-03 0.0000000000000000e+00  2.8243573755869231e-03 -2.0284953688940945e-03 0.0000000000000000e+00  2.8317832287545375e-03 -2.0178682998727164e-03 0.0000000000000000e+00  2.8386969398098887e-03 -2.0095394613024683e-03 0.0000000000000000e+00  2.8452256857930337e-03 -2.0036428906123681e-03 0.0000000000000000e+00  2.8514416635896521e-03 -2.0003783000599748e-03 0.0000000000000000e+00  2.8572292719067954e-03 -2.0000768640121018e-03 0.0000000000000000e+00  2.8626427306862033e-03 -2.0032200756581282e-03 0.0000000000000000e+00  2.8677493379612781e-03 -2.0100244748696341e-03 0.0000000000000000e+00  2.8725275537378765e-03 -2.0207434543009881e-03 0.0000000000000000e+00  2.8770153382495513e-03 -2.0355275743934439e-03 0.0000000000000000e+00  2.8811513797421954e-03 -2.0545602386499422e-03 0.0000000000000000e+00  2.8850372696504140e-03 -2.0785286555318984e-03 0.0000000000000000e+00  2.8888918806918417e-03 -2.1072084659329304e-03 0.0000000000000000e+00  2.8926556178915925e-03 -2.1406126491316162e-03 0.0000000000000000e+00  2.8965012843203716e-03 -2.1786359455507301e-03 0.0000000000000000e+00  2.9002286704870230e-03 -2.2210077181323297e-03 0.0000000000000000e+00  2.9039699723339596e-03 -2.2679335799461703e-03 0.0000000000000000e+00  2.9077813061150724e-03 -2.3189447360887124e-03 0.0000000000000000e+00  2.9116353375146647e-03 -2.3741016024285432e-03 0.0000000000000000e+00  2.9157304308533058e-03 -2.4329615534611358e-03 0.0000000000000000e+00  2.9201380645640282e-03 -2.4954347536346650e-03 0.0000000000000000e+00  2.9249271808919003e-03 -2.5601131982717624e-03 0.0000000000000000e+00  2.9302372662926407e-03 -2.6263177262544151e-03 0.0000000000000000e+00  2.9361929406246348e-03 -2.6939047420864253e-03 0.0000000000000000e+00  2.9435046863637584e-03 -2.7604109513493544e-03 0.0000000000000000e+00  2.9556820634017190e-03 -2.8190735809301465e-03 0.0000000000000000e+00  3.0717704936726745e-03 -2.7943986936937578e-03 0.0000000000000000e+00  3.0979903850666111e-03 -2.7067645853414658e-03 0.0000000000000000e+00  3.1078982796048085e-03 -2.6101021823052503e-03 0.0000000000000000e+00  3.1140454441606555e-03 -2.5142941953284043e-03 0.0000000000000000e+00  3.1239532379911208e-03 -2.4165427826833884e-03 0.0000000000000000e+00  3.1336217122929170e-03 -2.3209896503549052e-03 0.0000000000000000e+00  3.1413386086482772e-03 -2.2281970423061654e-03 0.0000000000000000e+00  3.1476681550980990e-03 -2.1368238702030545e-03 0.0000000000000000e+00  3.1497308768745490e-03 -2.0458687118759854e-03 0.0000000000000000e+00  3.1471749213684247e-03 -1.9606682026988330e-03 0.0000000000000000e+00  3.1410459077839217e-03 -1.8822725611084134e-03 0.0000000000000000e+00  3.1303959973540910e-03 -1.8097435807718897e-03 0.0000000000000000e+00  3.1138106372008076e-03 -1.7431607174104649e-03 0.0000000000000000e+00  3.0913910052803605e-03 -1.6843620260579540e-03 0.0000000000000000e+00  3.0637110864666292e-03 -1.6348858750554552e-03 0.0000000000000000e+00  3.0311063232278980e-03 -1.5951969009225962e-03 0.0000000000000000e+00  2.9939882729240535e-03 -1.5656253930676372e-03 0.0000000000000000e+00  2.9524401140488326e-03 -1.5464289145123958e-03 0.0000000000000000e+00  2.9059703880590722e-03 -1.5376473155708575e-03 0.0000000000000000e+00  2.8539590986097910e-03 -1.5413454873182907e-03 0.0000000000000000e+00  2.7969454724699585e-03 -1.5587549395878655e-03 0.0000000000000000e+00  2.7355405867140851e-03 -1.5917425709952794e-03 0.0000000000000000e+00  2.6712685368559469e-03 -1.6422823661349194e-03 0.0000000000000000e+00  2.6071844989841984e-03 -1.7112294812829593e-03 0.0000000000000000e+00  2.5454320056915963e-03 -1.7992505628985894e-03 0.0000000000000000e+00  2.4911818346239093e-03 -1.9037187091496771e-03 0.0000000000000000e+00  2.4432299384869638e-03 -2.0249772508106395e-03 0.0000000000000000e+00  2.4069677652237861e-03 -2.1556795805802841e-03 0.0000000000000000e+00  2.3868705143003329e-03 -2.2955076118846281e-03 0.0000000000000000e+00  2.3869020596209681e-03 -2.4134978184577084e-03 0.0000000000000000e+00  2.4921066540939205e-03 -2.5251152422214739e-03 0.0000000000000000e+00  2.5833400148463446e-03 -2.5228985692647764e-03 0.0000000000000000e+00  2.6678661374197358e-03 -2.5229578640042346e-03 0.0000000000000000e+00  2.7519914463294852e-03 -2.5230631199360982e-03 0.0000000000000000e+00  2.8363687649867087e-03 -2.5232490521558491e-03 0.0000000000000000e+00  2.9213661188954988e-03 -2.5246474296420954e-03 0.0000000000000000e+00  3.0527078628212797e-03 -2.5266977401209312e-03 0